+ 0.5 0 2 tcp 40 ------- 1 0.0 3.0 0 0
- 0.5 0 2 tcp 40 ------- 1 0.0 3.0 0 0
r 0.520356 0 2 tcp 40 ------- 1 0.0 3.0 0 0
+ 0.520356 2 3 tcp 40 ------- 1 0.0 3.0 0 0
- 0.520356 2 3 tcp 40 ------- 1 0.0 3.0 0 0
r 0.540711 2 3 tcp 40 ------- 1 0.0 3.0 0 0
+ 0.540711 3 2 ack 40 ------- 1 3.0 0.0 0 1
- 0.540711 3 2 ack 40 ------- 1 3.0 0.0 0 1
r 0.561067 3 2 ack 40 ------- 1 3.0 0.0 0 1
+ 0.561067 2 0 ack 40 ------- 1 3.0 0.0 0 1
- 0.561067 2 0 ack 40 ------- 1 3.0 0.0 0 1
r 0.581422 2 0 ack 40 ------- 1 3.0 0.0 0 1
+ 0.581422 0 2 tcp 1040 ------- 1 0.0 3.0 1 2
- 0.581422 0 2 tcp 1040 ------- 1 0.0 3.0 1 2
+ 0.581422 0 2 tcp 1040 ------- 1 0.0 3.0 2 3
- 0.590667 0 2 tcp 1040 ------- 1 0.0 3.0 2 3
r 0.610667 0 2 tcp 1040 ------- 1 0.0 3.0 1 2
+ 0.610667 2 3 tcp 1040 ------- 1 0.0 3.0 1 2
- 0.610667 2 3 tcp 1040 ------- 1 0.0 3.0 1 2
r 0.619911 0 2 tcp 1040 ------- 1 0.0 3.0 2 3
+ 0.619911 2 3 tcp 1040 ------- 1 0.0 3.0 2 3
- 0.619911 2 3 tcp 1040 ------- 1 0.0 3.0 2 3
r 0.639911 2 3 tcp 1040 ------- 1 0.0 3.0 1 2
+ 0.639911 3 2 ack 40 ------- 1 3.0 0.0 1 4
- 0.639911 3 2 ack 40 ------- 1 3.0 0.0 1 4
r 0.649156 2 3 tcp 1040 ------- 1 0.0 3.0 2 3
+ 0.649156 3 2 ack 40 ------- 1 3.0 0.0 2 5
- 0.649156 3 2 ack 40 ------- 1 3.0 0.0 2 5
r 0.660267 3 2 ack 40 ------- 1 3.0 0.0 1 4
+ 0.660267 2 0 ack 40 ------- 1 3.0 0.0 1 4
- 0.660267 2 0 ack 40 ------- 1 3.0 0.0 1 4
r 0.669511 3 2 ack 40 ------- 1 3.0 0.0 2 5
+ 0.669511 2 0 ack 40 ------- 1 3.0 0.0 2 5
- 0.669511 2 0 ack 40 ------- 1 3.0 0.0 2 5
r 0.680622 2 0 ack 40 ------- 1 3.0 0.0 1 4
+ 0.680622 0 2 tcp 1040 ------- 1 0.0 3.0 3 6
- 0.680622 0 2 tcp 1040 ------- 1 0.0 3.0 3 6
+ 0.680622 0 2 tcp 1040 ------- 1 0.0 3.0 4 7
r 0.689867 2 0 ack 40 ------- 1 3.0 0.0 2 5
+ 0.689867 0 2 tcp 1040 ------- 1 0.0 3.0 5 8
+ 0.689867 0 2 tcp 1040 ------- 1 0.0 3.0 6 9
- 0.689867 0 2 tcp 1040 ------- 1 0.0 3.0 4 7
- 0.699111 0 2 tcp 1040 ------- 1 0.0 3.0 5 8
- 0.708356 0 2 tcp 1040 ------- 1 0.0 3.0 6 9
r 0.709867 0 2 tcp 1040 ------- 1 0.0 3.0 3 6
+ 0.709867 2 3 tcp 1040 ------- 1 0.0 3.0 3 6
- 0.709867 2 3 tcp 1040 ------- 1 0.0 3.0 3 6
r 0.719111 0 2 tcp 1040 ------- 1 0.0 3.0 4 7
+ 0.719111 2 3 tcp 1040 ------- 1 0.0 3.0 4 7
- 0.719111 2 3 tcp 1040 ------- 1 0.0 3.0 4 7
r 0.728356 0 2 tcp 1040 ------- 1 0.0 3.0 5 8
+ 0.728356 2 3 tcp 1040 ------- 1 0.0 3.0 5 8
- 0.728356 2 3 tcp 1040 ------- 1 0.0 3.0 5 8
r 0.7376 0 2 tcp 1040 ------- 1 0.0 3.0 6 9
+ 0.7376 2 3 tcp 1040 ------- 1 0.0 3.0 6 9
- 0.7376 2 3 tcp 1040 ------- 1 0.0 3.0 6 9
r 0.739111 2 3 tcp 1040 ------- 1 0.0 3.0 3 6
+ 0.739111 3 2 ack 40 ------- 1 3.0 0.0 3 10
- 0.739111 3 2 ack 40 ------- 1 3.0 0.0 3 10
r 0.748356 2 3 tcp 1040 ------- 1 0.0 3.0 4 7
+ 0.748356 3 2 ack 40 ------- 1 3.0 0.0 4 11
- 0.748356 3 2 ack 40 ------- 1 3.0 0.0 4 11
r 0.7576 2 3 tcp 1040 ------- 1 0.0 3.0 5 8
+ 0.7576 3 2 ack 40 ------- 1 3.0 0.0 5 12
- 0.7576 3 2 ack 40 ------- 1 3.0 0.0 5 12
r 0.759467 3 2 ack 40 ------- 1 3.0 0.0 3 10
+ 0.759467 2 0 ack 40 ------- 1 3.0 0.0 3 10
- 0.759467 2 0 ack 40 ------- 1 3.0 0.0 3 10
r 0.766844 2 3 tcp 1040 ------- 1 0.0 3.0 6 9
+ 0.766844 3 2 ack 40 ------- 1 3.0 0.0 6 13
- 0.766844 3 2 ack 40 ------- 1 3.0 0.0 6 13
r 0.768711 3 2 ack 40 ------- 1 3.0 0.0 4 11
+ 0.768711 2 0 ack 40 ------- 1 3.0 0.0 4 11
- 0.768711 2 0 ack 40 ------- 1 3.0 0.0 4 11
r 0.777956 3 2 ack 40 ------- 1 3.0 0.0 5 12
+ 0.777956 2 0 ack 40 ------- 1 3.0 0.0 5 12
- 0.777956 2 0 ack 40 ------- 1 3.0 0.0 5 12
r 0.779822 2 0 ack 40 ------- 1 3.0 0.0 3 10
+ 0.779822 0 2 tcp 1040 ------- 1 0.0 3.0 7 14
- 0.779822 0 2 tcp 1040 ------- 1 0.0 3.0 7 14
+ 0.779822 0 2 tcp 1040 ------- 1 0.0 3.0 8 15
r 0.7872 3 2 ack 40 ------- 1 3.0 0.0 6 13
+ 0.7872 2 0 ack 40 ------- 1 3.0 0.0 6 13
- 0.7872 2 0 ack 40 ------- 1 3.0 0.0 6 13
r 0.789067 2 0 ack 40 ------- 1 3.0 0.0 4 11
+ 0.789067 0 2 tcp 1040 ------- 1 0.0 3.0 9 16
+ 0.789067 0 2 tcp 1040 ------- 1 0.0 3.0 10 17
- 0.789067 0 2 tcp 1040 ------- 1 0.0 3.0 8 15
r 0.798311 2 0 ack 40 ------- 1 3.0 0.0 5 12
+ 0.798311 0 2 tcp 1040 ------- 1 0.0 3.0 11 18
+ 0.798311 0 2 tcp 1040 ------- 1 0.0 3.0 12 19
- 0.798311 0 2 tcp 1040 ------- 1 0.0 3.0 9 16
r 0.807556 2 0 ack 40 ------- 1 3.0 0.0 6 13
+ 0.807556 0 2 tcp 1040 ------- 1 0.0 3.0 13 20
+ 0.807556 0 2 tcp 1040 ------- 1 0.0 3.0 14 21
- 0.807556 0 2 tcp 1040 ------- 1 0.0 3.0 10 17
r 0.809067 0 2 tcp 1040 ------- 1 0.0 3.0 7 14
+ 0.809067 2 3 tcp 1040 ------- 1 0.0 3.0 7 14
- 0.809067 2 3 tcp 1040 ------- 1 0.0 3.0 7 14
- 0.8168 0 2 tcp 1040 ------- 1 0.0 3.0 11 18
r 0.818311 0 2 tcp 1040 ------- 1 0.0 3.0 8 15
+ 0.818311 2 3 tcp 1040 ------- 1 0.0 3.0 8 15
- 0.818311 2 3 tcp 1040 ------- 1 0.0 3.0 8 15
- 0.826044 0 2 tcp 1040 ------- 1 0.0 3.0 12 19
r 0.827556 0 2 tcp 1040 ------- 1 0.0 3.0 9 16
+ 0.827556 2 3 tcp 1040 ------- 1 0.0 3.0 9 16
- 0.827556 2 3 tcp 1040 ------- 1 0.0 3.0 9 16
- 0.835289 0 2 tcp 1040 ------- 1 0.0 3.0 13 20
r 0.8368 0 2 tcp 1040 ------- 1 0.0 3.0 10 17
+ 0.8368 2 3 tcp 1040 ------- 1 0.0 3.0 10 17
- 0.8368 2 3 tcp 1040 ------- 1 0.0 3.0 10 17
r 0.838311 2 3 tcp 1040 ------- 1 0.0 3.0 7 14
+ 0.838311 3 2 ack 40 ------- 1 3.0 0.0 7 22
- 0.838311 3 2 ack 40 ------- 1 3.0 0.0 7 22
- 0.844533 0 2 tcp 1040 ------- 1 0.0 3.0 14 21
r 0.846044 0 2 tcp 1040 ------- 1 0.0 3.0 11 18
+ 0.846044 2 3 tcp 1040 ------- 1 0.0 3.0 11 18
- 0.846044 2 3 tcp 1040 ------- 1 0.0 3.0 11 18
r 0.847556 2 3 tcp 1040 ------- 1 0.0 3.0 8 15
+ 0.847556 3 2 ack 40 ------- 1 3.0 0.0 8 23
- 0.847556 3 2 ack 40 ------- 1 3.0 0.0 8 23
r 0.855289 0 2 tcp 1040 ------- 1 0.0 3.0 12 19
+ 0.855289 2 3 tcp 1040 ------- 1 0.0 3.0 12 19
- 0.855289 2 3 tcp 1040 ------- 1 0.0 3.0 12 19
r 0.8568 2 3 tcp 1040 ------- 1 0.0 3.0 9 16
+ 0.8568 3 2 ack 40 ------- 1 3.0 0.0 9 24
- 0.8568 3 2 ack 40 ------- 1 3.0 0.0 9 24
r 0.858667 3 2 ack 40 ------- 1 3.0 0.0 7 22
+ 0.858667 2 0 ack 40 ------- 1 3.0 0.0 7 22
- 0.858667 2 0 ack 40 ------- 1 3.0 0.0 7 22
r 0.864533 0 2 tcp 1040 ------- 1 0.0 3.0 13 20
+ 0.864533 2 3 tcp 1040 ------- 1 0.0 3.0 13 20
- 0.864533 2 3 tcp 1040 ------- 1 0.0 3.0 13 20
r 0.866044 2 3 tcp 1040 ------- 1 0.0 3.0 10 17
+ 0.866044 3 2 ack 40 ------- 1 3.0 0.0 10 25
- 0.866044 3 2 ack 40 ------- 1 3.0 0.0 10 25
r 0.867911 3 2 ack 40 ------- 1 3.0 0.0 8 23
+ 0.867911 2 0 ack 40 ------- 1 3.0 0.0 8 23
- 0.867911 2 0 ack 40 ------- 1 3.0 0.0 8 23
r 0.873778 0 2 tcp 1040 ------- 1 0.0 3.0 14 21
+ 0.873778 2 3 tcp 1040 ------- 1 0.0 3.0 14 21
- 0.873778 2 3 tcp 1040 ------- 1 0.0 3.0 14 21
r 0.875289 2 3 tcp 1040 ------- 1 0.0 3.0 11 18
+ 0.875289 3 2 ack 40 ------- 1 3.0 0.0 11 26
- 0.875289 3 2 ack 40 ------- 1 3.0 0.0 11 26
r 0.877156 3 2 ack 40 ------- 1 3.0 0.0 9 24
+ 0.877156 2 0 ack 40 ------- 1 3.0 0.0 9 24
- 0.877156 2 0 ack 40 ------- 1 3.0 0.0 9 24
r 0.879022 2 0 ack 40 ------- 1 3.0 0.0 7 22
+ 0.879022 0 2 tcp 1040 ------- 1 0.0 3.0 15 27
- 0.879022 0 2 tcp 1040 ------- 1 0.0 3.0 15 27
+ 0.879022 0 2 tcp 1040 ------- 1 0.0 3.0 16 28
r 0.884533 2 3 tcp 1040 ------- 1 0.0 3.0 12 19
+ 0.884533 3 2 ack 40 ------- 1 3.0 0.0 12 29
- 0.884533 3 2 ack 40 ------- 1 3.0 0.0 12 29
r 0.8864 3 2 ack 40 ------- 1 3.0 0.0 10 25
+ 0.8864 2 0 ack 40 ------- 1 3.0 0.0 10 25
- 0.8864 2 0 ack 40 ------- 1 3.0 0.0 10 25
r 0.888267 2 0 ack 40 ------- 1 3.0 0.0 8 23
+ 0.888267 0 2 tcp 1040 ------- 1 0.0 3.0 17 30
+ 0.888267 0 2 tcp 1040 ------- 1 0.0 3.0 18 31
- 0.888267 0 2 tcp 1040 ------- 1 0.0 3.0 16 28
r 0.893778 2 3 tcp 1040 ------- 1 0.0 3.0 13 20
+ 0.893778 3 2 ack 40 ------- 1 3.0 0.0 13 32
- 0.893778 3 2 ack 40 ------- 1 3.0 0.0 13 32
r 0.895644 3 2 ack 40 ------- 1 3.0 0.0 11 26
+ 0.895644 2 0 ack 40 ------- 1 3.0 0.0 11 26
- 0.895644 2 0 ack 40 ------- 1 3.0 0.0 11 26
r 0.897511 2 0 ack 40 ------- 1 3.0 0.0 9 24
+ 0.897511 0 2 tcp 1040 ------- 1 0.0 3.0 19 33
+ 0.897511 0 2 tcp 1040 ------- 1 0.0 3.0 20 34
- 0.897511 0 2 tcp 1040 ------- 1 0.0 3.0 17 30
r 0.903022 2 3 tcp 1040 ------- 1 0.0 3.0 14 21
+ 0.903022 3 2 ack 40 ------- 1 3.0 0.0 14 35
- 0.903022 3 2 ack 40 ------- 1 3.0 0.0 14 35
r 0.904889 3 2 ack 40 ------- 1 3.0 0.0 12 29
+ 0.904889 2 0 ack 40 ------- 1 3.0 0.0 12 29
- 0.904889 2 0 ack 40 ------- 1 3.0 0.0 12 29
r 0.906756 2 0 ack 40 ------- 1 3.0 0.0 10 25
+ 0.906756 0 2 tcp 1040 ------- 1 0.0 3.0 21 36
+ 0.906756 0 2 tcp 1040 ------- 1 0.0 3.0 22 37
- 0.906756 0 2 tcp 1040 ------- 1 0.0 3.0 18 31
r 0.908267 0 2 tcp 1040 ------- 1 0.0 3.0 15 27
+ 0.908267 2 3 tcp 1040 ------- 1 0.0 3.0 15 27
- 0.908267 2 3 tcp 1040 ------- 1 0.0 3.0 15 27
r 0.914133 3 2 ack 40 ------- 1 3.0 0.0 13 32
+ 0.914133 2 0 ack 40 ------- 1 3.0 0.0 13 32
- 0.914133 2 0 ack 40 ------- 1 3.0 0.0 13 32
r 0.916 2 0 ack 40 ------- 1 3.0 0.0 11 26
+ 0.916 0 2 tcp 1040 ------- 1 0.0 3.0 23 38
+ 0.916 0 2 tcp 1040 ------- 1 0.0 3.0 24 39
- 0.916 0 2 tcp 1040 ------- 1 0.0 3.0 19 33
r 0.917511 0 2 tcp 1040 ------- 1 0.0 3.0 16 28
+ 0.917511 2 3 tcp 1040 ------- 1 0.0 3.0 16 28
- 0.917511 2 3 tcp 1040 ------- 1 0.0 3.0 16 28
r 0.923378 3 2 ack 40 ------- 1 3.0 0.0 14 35
+ 0.923378 2 0 ack 40 ------- 1 3.0 0.0 14 35
- 0.923378 2 0 ack 40 ------- 1 3.0 0.0 14 35
r 0.925244 2 0 ack 40 ------- 1 3.0 0.0 12 29
+ 0.925244 0 2 tcp 1040 ------- 1 0.0 3.0 25 40
+ 0.925244 0 2 tcp 1040 ------- 1 0.0 3.0 26 41
- 0.925244 0 2 tcp 1040 ------- 1 0.0 3.0 20 34
r 0.926756 0 2 tcp 1040 ------- 1 0.0 3.0 17 30
+ 0.926756 2 3 tcp 1040 ------- 1 0.0 3.0 17 30
- 0.926756 2 3 tcp 1040 ------- 1 0.0 3.0 17 30
r 0.934489 2 0 ack 40 ------- 1 3.0 0.0 13 32
+ 0.934489 0 2 tcp 1040 ------- 1 0.0 3.0 27 42
+ 0.934489 0 2 tcp 1040 ------- 1 0.0 3.0 28 43
- 0.934489 0 2 tcp 1040 ------- 1 0.0 3.0 21 36
r 0.936 0 2 tcp 1040 ------- 1 0.0 3.0 18 31
+ 0.936 2 3 tcp 1040 ------- 1 0.0 3.0 18 31
- 0.936 2 3 tcp 1040 ------- 1 0.0 3.0 18 31
r 0.937511 2 3 tcp 1040 ------- 1 0.0 3.0 15 27
+ 0.937511 3 2 ack 40 ------- 1 3.0 0.0 15 44
- 0.937511 3 2 ack 40 ------- 1 3.0 0.0 15 44
r 0.943733 2 0 ack 40 ------- 1 3.0 0.0 14 35
+ 0.943733 0 2 tcp 1040 ------- 1 0.0 3.0 29 45
+ 0.943733 0 2 tcp 1040 ------- 1 0.0 3.0 30 46
- 0.943733 0 2 tcp 1040 ------- 1 0.0 3.0 22 37
r 0.945244 0 2 tcp 1040 ------- 1 0.0 3.0 19 33
+ 0.945244 2 3 tcp 1040 ------- 1 0.0 3.0 19 33
- 0.945244 2 3 tcp 1040 ------- 1 0.0 3.0 19 33
r 0.946756 2 3 tcp 1040 ------- 1 0.0 3.0 16 28
+ 0.946756 3 2 ack 40 ------- 1 3.0 0.0 16 47
- 0.946756 3 2 ack 40 ------- 1 3.0 0.0 16 47
- 0.952978 0 2 tcp 1040 ------- 1 0.0 3.0 23 38
r 0.954489 0 2 tcp 1040 ------- 1 0.0 3.0 20 34
+ 0.954489 2 3 tcp 1040 ------- 1 0.0 3.0 20 34
- 0.954489 2 3 tcp 1040 ------- 1 0.0 3.0 20 34
r 0.956 2 3 tcp 1040 ------- 1 0.0 3.0 17 30
+ 0.956 3 2 ack 40 ------- 1 3.0 0.0 17 48
- 0.956 3 2 ack 40 ------- 1 3.0 0.0 17 48
r 0.957867 3 2 ack 40 ------- 1 3.0 0.0 15 44
+ 0.957867 2 0 ack 40 ------- 1 3.0 0.0 15 44
- 0.957867 2 0 ack 40 ------- 1 3.0 0.0 15 44
- 0.962222 0 2 tcp 1040 ------- 1 0.0 3.0 24 39
r 0.963733 0 2 tcp 1040 ------- 1 0.0 3.0 21 36
+ 0.963733 2 3 tcp 1040 ------- 1 0.0 3.0 21 36
- 0.963733 2 3 tcp 1040 ------- 1 0.0 3.0 21 36
r 0.965244 2 3 tcp 1040 ------- 1 0.0 3.0 18 31
+ 0.965244 3 2 ack 40 ------- 1 3.0 0.0 18 49
- 0.965244 3 2 ack 40 ------- 1 3.0 0.0 18 49
r 0.967111 3 2 ack 40 ------- 1 3.0 0.0 16 47
+ 0.967111 2 0 ack 40 ------- 1 3.0 0.0 16 47
- 0.967111 2 0 ack 40 ------- 1 3.0 0.0 16 47
- 0.971467 0 2 tcp 1040 ------- 1 0.0 3.0 25 40
r 0.972978 0 2 tcp 1040 ------- 1 0.0 3.0 22 37
+ 0.972978 2 3 tcp 1040 ------- 1 0.0 3.0 22 37
- 0.972978 2 3 tcp 1040 ------- 1 0.0 3.0 22 37
r 0.974489 2 3 tcp 1040 ------- 1 0.0 3.0 19 33
+ 0.974489 3 2 ack 40 ------- 1 3.0 0.0 19 50
- 0.974489 3 2 ack 40 ------- 1 3.0 0.0 19 50
r 0.976356 3 2 ack 40 ------- 1 3.0 0.0 17 48
+ 0.976356 2 0 ack 40 ------- 1 3.0 0.0 17 48
- 0.976356 2 0 ack 40 ------- 1 3.0 0.0 17 48
r 0.978222 2 0 ack 40 ------- 1 3.0 0.0 15 44
+ 0.978222 0 2 tcp 1040 ------- 1 0.0 3.0 31 51
+ 0.978222 0 2 tcp 1040 ------- 1 0.0 3.0 32 52
- 0.980711 0 2 tcp 1040 ------- 1 0.0 3.0 26 41
r 0.982222 0 2 tcp 1040 ------- 1 0.0 3.0 23 38
+ 0.982222 2 3 tcp 1040 ------- 1 0.0 3.0 23 38
- 0.982222 2 3 tcp 1040 ------- 1 0.0 3.0 23 38
r 0.983733 2 3 tcp 1040 ------- 1 0.0 3.0 20 34
+ 0.983733 3 2 ack 40 ------- 1 3.0 0.0 20 53
- 0.983733 3 2 ack 40 ------- 1 3.0 0.0 20 53
r 0.9856 3 2 ack 40 ------- 1 3.0 0.0 18 49
+ 0.9856 2 0 ack 40 ------- 1 3.0 0.0 18 49
- 0.9856 2 0 ack 40 ------- 1 3.0 0.0 18 49
r 0.987467 2 0 ack 40 ------- 1 3.0 0.0 16 47
+ 0.987467 0 2 tcp 1040 ------- 1 0.0 3.0 33 54
+ 0.987467 0 2 tcp 1040 ------- 1 0.0 3.0 34 55
- 0.989956 0 2 tcp 1040 ------- 1 0.0 3.0 27 42
r 0.991467 0 2 tcp 1040 ------- 1 0.0 3.0 24 39
+ 0.991467 2 3 tcp 1040 ------- 1 0.0 3.0 24 39
- 0.991467 2 3 tcp 1040 ------- 1 0.0 3.0 24 39
r 0.992978 2 3 tcp 1040 ------- 1 0.0 3.0 21 36
+ 0.992978 3 2 ack 40 ------- 1 3.0 0.0 21 56
- 0.992978 3 2 ack 40 ------- 1 3.0 0.0 21 56
r 0.994844 3 2 ack 40 ------- 1 3.0 0.0 19 50
+ 0.994844 2 0 ack 40 ------- 1 3.0 0.0 19 50
- 0.994844 2 0 ack 40 ------- 1 3.0 0.0 19 50
r 0.996711 2 0 ack 40 ------- 1 3.0 0.0 17 48
+ 0.996711 0 2 tcp 1040 ------- 1 0.0 3.0 35 57
+ 0.996711 0 2 tcp 1040 ------- 1 0.0 3.0 36 58
- 0.9992 0 2 tcp 1040 ------- 1 0.0 3.0 28 43
+ 1 1 2 cbr 500 ------- 2 1.0 3.1 0 59
- 1 1 2 cbr 500 ------- 2 1.0 3.1 0 59
r 1.000711 0 2 tcp 1040 ------- 1 0.0 3.0 25 40
+ 1.000711 2 3 tcp 1040 ------- 1 0.0 3.0 25 40
- 1.000711 2 3 tcp 1040 ------- 1 0.0 3.0 25 40
r 1.002222 2 3 tcp 1040 ------- 1 0.0 3.0 22 37
+ 1.002222 3 2 ack 40 ------- 1 3.0 0.0 22 60
- 1.002222 3 2 ack 40 ------- 1 3.0 0.0 22 60
r 1.004089 3 2 ack 40 ------- 1 3.0 0.0 20 53
+ 1.004089 2 0 ack 40 ------- 1 3.0 0.0 20 53
- 1.004089 2 0 ack 40 ------- 1 3.0 0.0 20 53
r 1.005956 2 0 ack 40 ------- 1 3.0 0.0 18 49
+ 1.005956 0 2 tcp 1040 ------- 1 0.0 3.0 37 61
+ 1.005956 0 2 tcp 1040 ------- 1 0.0 3.0 38 62
d 1.005956 0 2 tcp 1040 ------- 1 0.0 3.0 38 62
- 1.008444 0 2 tcp 1040 ------- 1 0.0 3.0 29 45
r 1.009956 0 2 tcp 1040 ------- 1 0.0 3.0 26 41
+ 1.009956 2 3 tcp 1040 ------- 1 0.0 3.0 26 41
- 1.009956 2 3 tcp 1040 ------- 1 0.0 3.0 26 41
+ 1.01 1 2 cbr 500 ------- 2 1.0 3.1 1 63
- 1.01 1 2 cbr 500 ------- 2 1.0 3.1 1 63
r 1.011467 2 3 tcp 1040 ------- 1 0.0 3.0 23 38
+ 1.011467 3 2 ack 40 ------- 1 3.0 0.0 23 64
- 1.011467 3 2 ack 40 ------- 1 3.0 0.0 23 64
r 1.013333 3 2 ack 40 ------- 1 3.0 0.0 21 56
+ 1.013333 2 0 ack 40 ------- 1 3.0 0.0 21 56
- 1.013333 2 0 ack 40 ------- 1 3.0 0.0 21 56
r 1.0152 2 0 ack 40 ------- 1 3.0 0.0 19 50
+ 1.0152 0 2 tcp 1040 ------- 1 0.0 3.0 39 65
- 1.017689 0 2 tcp 1040 ------- 1 0.0 3.0 30 46
r 1.0192 0 2 tcp 1040 ------- 1 0.0 3.0 27 42
+ 1.0192 2 3 tcp 1040 ------- 1 0.0 3.0 27 42
- 1.0192 2 3 tcp 1040 ------- 1 0.0 3.0 27 42
+ 1.02 1 2 cbr 500 ------- 2 1.0 3.1 2 66
- 1.02 1 2 cbr 500 ------- 2 1.0 3.1 2 66
r 1.020711 2 3 tcp 1040 ------- 1 0.0 3.0 24 39
+ 1.020711 3 2 ack 40 ------- 1 3.0 0.0 24 67
- 1.020711 3 2 ack 40 ------- 1 3.0 0.0 24 67
r 1.022578 3 2 ack 40 ------- 1 3.0 0.0 22 60
+ 1.022578 2 0 ack 40 ------- 1 3.0 0.0 22 60
- 1.022578 2 0 ack 40 ------- 1 3.0 0.0 22 60
r 1.024444 2 0 ack 40 ------- 1 3.0 0.0 20 53
+ 1.024444 0 2 tcp 1040 ------- 1 0.0 3.0 40 68
r 1.024444 1 2 cbr 500 ------- 2 1.0 3.1 0 59
+ 1.024444 2 3 cbr 500 ------- 2 1.0 3.1 0 59
- 1.026933 0 2 tcp 1040 ------- 1 0.0 3.0 31 51
r 1.028444 0 2 tcp 1040 ------- 1 0.0 3.0 28 43
+ 1.028444 2 3 tcp 1040 ------- 1 0.0 3.0 28 43
- 1.028444 2 3 cbr 500 ------- 2 1.0 3.1 0 59
r 1.029956 2 3 tcp 1040 ------- 1 0.0 3.0 25 40
+ 1.029956 3 2 ack 40 ------- 1 3.0 0.0 25 69
- 1.029956 3 2 ack 40 ------- 1 3.0 0.0 25 69
+ 1.03 1 2 cbr 500 ------- 2 1.0 3.1 3 70
- 1.03 1 2 cbr 500 ------- 2 1.0 3.1 3 70
r 1.031822 3 2 ack 40 ------- 1 3.0 0.0 23 64
+ 1.031822 2 0 ack 40 ------- 1 3.0 0.0 23 64
- 1.031822 2 0 ack 40 ------- 1 3.0 0.0 23 64
- 1.032889 2 3 tcp 1040 ------- 1 0.0 3.0 28 43
r 1.033689 2 0 ack 40 ------- 1 3.0 0.0 21 56
+ 1.033689 0 2 tcp 1040 ------- 1 0.0 3.0 41 71
r 1.034444 1 2 cbr 500 ------- 2 1.0 3.1 1 63
+ 1.034444 2 3 cbr 500 ------- 2 1.0 3.1 1 63
- 1.036178 0 2 tcp 1040 ------- 1 0.0 3.0 32 52
r 1.037689 0 2 tcp 1040 ------- 1 0.0 3.0 29 45
+ 1.037689 2 3 tcp 1040 ------- 1 0.0 3.0 29 45
r 1.0392 2 3 tcp 1040 ------- 1 0.0 3.0 26 41
+ 1.0392 3 2 ack 40 ------- 1 3.0 0.0 26 72
- 1.0392 3 2 ack 40 ------- 1 3.0 0.0 26 72
+ 1.04 1 2 cbr 500 ------- 2 1.0 3.1 4 73
- 1.04 1 2 cbr 500 ------- 2 1.0 3.1 4 73
r 1.041067 3 2 ack 40 ------- 1 3.0 0.0 24 67
+ 1.041067 2 0 ack 40 ------- 1 3.0 0.0 24 67
- 1.041067 2 0 ack 40 ------- 1 3.0 0.0 24 67
- 1.042133 2 3 cbr 500 ------- 2 1.0 3.1 1 63
r 1.042933 2 0 ack 40 ------- 1 3.0 0.0 22 60
+ 1.042933 0 2 tcp 1040 ------- 1 0.0 3.0 42 74
r 1.044444 1 2 cbr 500 ------- 2 1.0 3.1 2 66
+ 1.044444 2 3 cbr 500 ------- 2 1.0 3.1 2 66
- 1.045422 0 2 tcp 1040 ------- 1 0.0 3.0 33 54
- 1.046578 2 3 tcp 1040 ------- 1 0.0 3.0 29 45
r 1.046933 0 2 tcp 1040 ------- 1 0.0 3.0 30 46
+ 1.046933 2 3 tcp 1040 ------- 1 0.0 3.0 30 46
r 1.048444 2 3 tcp 1040 ------- 1 0.0 3.0 27 42
+ 1.048444 3 2 ack 40 ------- 1 3.0 0.0 27 75
- 1.048444 3 2 ack 40 ------- 1 3.0 0.0 27 75
+ 1.05 1 2 cbr 500 ------- 2 1.0 3.1 5 76
- 1.05 1 2 cbr 500 ------- 2 1.0 3.1 5 76
r 1.050311 3 2 ack 40 ------- 1 3.0 0.0 25 69
+ 1.050311 2 0 ack 40 ------- 1 3.0 0.0 25 69
- 1.050311 2 0 ack 40 ------- 1 3.0 0.0 25 69
r 1.052178 2 0 ack 40 ------- 1 3.0 0.0 23 64
+ 1.052178 0 2 tcp 1040 ------- 1 0.0 3.0 43 77
r 1.052889 2 3 cbr 500 ------- 2 1.0 3.1 0 59
r 1.054444 1 2 cbr 500 ------- 2 1.0 3.1 3 70
+ 1.054444 2 3 cbr 500 ------- 2 1.0 3.1 3 70
- 1.054667 0 2 tcp 1040 ------- 1 0.0 3.0 34 55
- 1.055822 2 3 cbr 500 ------- 2 1.0 3.1 2 66
r 1.056178 0 2 tcp 1040 ------- 1 0.0 3.0 31 51
+ 1.056178 2 3 tcp 1040 ------- 1 0.0 3.0 31 51
r 1.059556 3 2 ack 40 ------- 1 3.0 0.0 26 72
+ 1.059556 2 0 ack 40 ------- 1 3.0 0.0 26 72
- 1.059556 2 0 ack 40 ------- 1 3.0 0.0 26 72
+ 1.06 1 2 cbr 500 ------- 2 1.0 3.1 6 78
- 1.06 1 2 cbr 500 ------- 2 1.0 3.1 6 78
- 1.060267 2 3 tcp 1040 ------- 1 0.0 3.0 30 46
r 1.061422 2 0 ack 40 ------- 1 3.0 0.0 24 67
+ 1.061422 0 2 tcp 1040 ------- 1 0.0 3.0 44 79
r 1.062133 2 3 tcp 1040 ------- 1 0.0 3.0 28 43
+ 1.062133 3 2 ack 40 ------- 1 3.0 0.0 28 80
- 1.062133 3 2 ack 40 ------- 1 3.0 0.0 28 80
- 1.063911 0 2 tcp 1040 ------- 1 0.0 3.0 35 57
r 1.064444 1 2 cbr 500 ------- 2 1.0 3.1 4 73
+ 1.064444 2 3 cbr 500 ------- 2 1.0 3.1 4 73
r 1.065422 0 2 tcp 1040 ------- 1 0.0 3.0 32 52
+ 1.065422 2 3 tcp 1040 ------- 1 0.0 3.0 32 52
r 1.066578 2 3 cbr 500 ------- 2 1.0 3.1 1 63
r 1.0688 3 2 ack 40 ------- 1 3.0 0.0 27 75
+ 1.0688 2 0 ack 40 ------- 1 3.0 0.0 27 75
- 1.0688 2 0 ack 40 ------- 1 3.0 0.0 27 75
- 1.069511 2 3 cbr 500 ------- 2 1.0 3.1 3 70
+ 1.07 1 2 cbr 500 ------- 2 1.0 3.1 7 81
- 1.07 1 2 cbr 500 ------- 2 1.0 3.1 7 81
r 1.070667 2 0 ack 40 ------- 1 3.0 0.0 25 69
+ 1.070667 0 2 tcp 1040 ------- 1 0.0 3.0 45 82
- 1.073156 0 2 tcp 1040 ------- 1 0.0 3.0 36 58
- 1.073956 2 3 tcp 1040 ------- 1 0.0 3.0 31 51
r 1.074444 1 2 cbr 500 ------- 2 1.0 3.1 5 76
+ 1.074444 2 3 cbr 500 ------- 2 1.0 3.1 5 76
r 1.074667 0 2 tcp 1040 ------- 1 0.0 3.0 33 54
+ 1.074667 2 3 tcp 1040 ------- 1 0.0 3.0 33 54
r 1.075822 2 3 tcp 1040 ------- 1 0.0 3.0 29 45
+ 1.075822 3 2 ack 40 ------- 1 3.0 0.0 29 83
- 1.075822 3 2 ack 40 ------- 1 3.0 0.0 29 83
r 1.079911 2 0 ack 40 ------- 1 3.0 0.0 26 72
+ 1.079911 0 2 tcp 1040 ------- 1 0.0 3.0 46 84
+ 1.08 1 2 cbr 500 ------- 2 1.0 3.1 8 85
- 1.08 1 2 cbr 500 ------- 2 1.0 3.1 8 85
r 1.080267 2 3 cbr 500 ------- 2 1.0 3.1 2 66
- 1.0824 0 2 tcp 1040 ------- 1 0.0 3.0 37 61
r 1.082489 3 2 ack 40 ------- 1 3.0 0.0 28 80
+ 1.082489 2 0 ack 40 ------- 1 3.0 0.0 28 80
- 1.082489 2 0 ack 40 ------- 1 3.0 0.0 28 80
- 1.0832 2 3 cbr 500 ------- 2 1.0 3.1 4 73
r 1.083911 0 2 tcp 1040 ------- 1 0.0 3.0 34 55
+ 1.083911 2 3 tcp 1040 ------- 1 0.0 3.0 34 55
r 1.084444 1 2 cbr 500 ------- 2 1.0 3.1 6 78
+ 1.084444 2 3 cbr 500 ------- 2 1.0 3.1 6 78
- 1.087644 2 3 tcp 1040 ------- 1 0.0 3.0 32 52
r 1.089156 2 0 ack 40 ------- 1 3.0 0.0 27 75
+ 1.089156 0 2 tcp 1040 ------- 1 0.0 3.0 47 86
r 1.089511 2 3 tcp 1040 ------- 1 0.0 3.0 30 46
+ 1.089511 3 2 ack 40 ------- 1 3.0 0.0 30 87
- 1.089511 3 2 ack 40 ------- 1 3.0 0.0 30 87
+ 1.09 1 2 cbr 500 ------- 2 1.0 3.1 9 88
- 1.09 1 2 cbr 500 ------- 2 1.0 3.1 9 88
- 1.091644 0 2 tcp 1040 ------- 1 0.0 3.0 39 65
r 1.093156 0 2 tcp 1040 ------- 1 0.0 3.0 35 57
+ 1.093156 2 3 tcp 1040 ------- 1 0.0 3.0 35 57
r 1.093956 2 3 cbr 500 ------- 2 1.0 3.1 3 70
r 1.094444 1 2 cbr 500 ------- 2 1.0 3.1 7 81
+ 1.094444 2 3 cbr 500 ------- 2 1.0 3.1 7 81
r 1.096178 3 2 ack 40 ------- 1 3.0 0.0 29 83
+ 1.096178 2 0 ack 40 ------- 1 3.0 0.0 29 83
- 1.096178 2 0 ack 40 ------- 1 3.0 0.0 29 83
- 1.096889 2 3 cbr 500 ------- 2 1.0 3.1 5 76
+ 1.1 1 2 cbr 500 ------- 2 1.0 3.1 10 89
- 1.1 1 2 cbr 500 ------- 2 1.0 3.1 10 89
- 1.100889 0 2 tcp 1040 ------- 1 0.0 3.0 40 68
- 1.101333 2 3 tcp 1040 ------- 1 0.0 3.0 33 54
r 1.1024 0 2 tcp 1040 ------- 1 0.0 3.0 36 58
+ 1.1024 2 3 tcp 1040 ------- 1 0.0 3.0 36 58
r 1.102844 2 0 ack 40 ------- 1 3.0 0.0 28 80
+ 1.102844 0 2 tcp 1040 ------- 1 0.0 3.0 48 90
r 1.1032 2 3 tcp 1040 ------- 1 0.0 3.0 31 51
+ 1.1032 3 2 ack 40 ------- 1 3.0 0.0 31 91
- 1.1032 3 2 ack 40 ------- 1 3.0 0.0 31 91
r 1.104444 1 2 cbr 500 ------- 2 1.0 3.1 8 85
+ 1.104444 2 3 cbr 500 ------- 2 1.0 3.1 8 85
r 1.107644 2 3 cbr 500 ------- 2 1.0 3.1 4 73
r 1.109867 3 2 ack 40 ------- 1 3.0 0.0 30 87
+ 1.109867 2 0 ack 40 ------- 1 3.0 0.0 30 87
- 1.109867 2 0 ack 40 ------- 1 3.0 0.0 30 87
+ 1.11 1 2 cbr 500 ------- 2 1.0 3.1 11 92
- 1.11 1 2 cbr 500 ------- 2 1.0 3.1 11 92
- 1.110133 0 2 tcp 1040 ------- 1 0.0 3.0 41 71
- 1.110578 2 3 tcp 1040 ------- 1 0.0 3.0 34 55
r 1.111644 0 2 tcp 1040 ------- 1 0.0 3.0 37 61
+ 1.111644 2 3 tcp 1040 ------- 1 0.0 3.0 37 61
r 1.114444 1 2 cbr 500 ------- 2 1.0 3.1 9 88
+ 1.114444 2 3 cbr 500 ------- 2 1.0 3.1 9 88
r 1.116533 2 0 ack 40 ------- 1 3.0 0.0 29 83
+ 1.116533 0 2 tcp 1040 ------- 1 0.0 3.0 49 93
r 1.116889 2 3 tcp 1040 ------- 1 0.0 3.0 32 52
+ 1.116889 3 2 ack 40 ------- 1 3.0 0.0 32 94
- 1.116889 3 2 ack 40 ------- 1 3.0 0.0 32 94
- 1.119378 0 2 tcp 1040 ------- 1 0.0 3.0 42 74
- 1.119822 2 3 cbr 500 ------- 2 1.0 3.1 6 78
+ 1.12 1 2 cbr 500 ------- 2 1.0 3.1 12 95
- 1.12 1 2 cbr 500 ------- 2 1.0 3.1 12 95
r 1.120889 0 2 tcp 1040 ------- 1 0.0 3.0 39 65
+ 1.120889 2 3 tcp 1040 ------- 1 0.0 3.0 39 65
r 1.121333 2 3 cbr 500 ------- 2 1.0 3.1 5 76
r 1.123556 3 2 ack 40 ------- 1 3.0 0.0 31 91
+ 1.123556 2 0 ack 40 ------- 1 3.0 0.0 31 91
- 1.123556 2 0 ack 40 ------- 1 3.0 0.0 31 91
- 1.124267 2 3 tcp 1040 ------- 1 0.0 3.0 35 57
r 1.124444 1 2 cbr 500 ------- 2 1.0 3.1 10 89
+ 1.124444 2 3 cbr 500 ------- 2 1.0 3.1 10 89
- 1.128622 0 2 tcp 1040 ------- 1 0.0 3.0 43 77
+ 1.13 1 2 cbr 500 ------- 2 1.0 3.1 13 96
- 1.13 1 2 cbr 500 ------- 2 1.0 3.1 13 96
r 1.130133 0 2 tcp 1040 ------- 1 0.0 3.0 40 68
+ 1.130133 2 3 tcp 1040 ------- 1 0.0 3.0 40 68
r 1.130222 2 0 ack 40 ------- 1 3.0 0.0 30 87
+ 1.130222 0 2 tcp 1040 ------- 1 0.0 3.0 50 97
r 1.130578 2 3 tcp 1040 ------- 1 0.0 3.0 33 54
+ 1.130578 3 2 ack 40 ------- 1 3.0 0.0 33 98
- 1.130578 3 2 ack 40 ------- 1 3.0 0.0 33 98
- 1.133511 2 3 cbr 500 ------- 2 1.0 3.1 7 81
r 1.134444 1 2 cbr 500 ------- 2 1.0 3.1 11 92
+ 1.134444 2 3 cbr 500 ------- 2 1.0 3.1 11 92
r 1.137244 3 2 ack 40 ------- 1 3.0 0.0 32 94
+ 1.137244 2 0 ack 40 ------- 1 3.0 0.0 32 94
- 1.137244 2 0 ack 40 ------- 1 3.0 0.0 32 94
- 1.137867 0 2 tcp 1040 ------- 1 0.0 3.0 44 79
- 1.137956 2 3 tcp 1040 ------- 1 0.0 3.0 36 58
r 1.139378 0 2 tcp 1040 ------- 1 0.0 3.0 41 71
+ 1.139378 2 3 tcp 1040 ------- 1 0.0 3.0 41 71
r 1.139822 2 3 tcp 1040 ------- 1 0.0 3.0 34 55
+ 1.139822 3 2 ack 40 ------- 1 3.0 0.0 34 99
- 1.139822 3 2 ack 40 ------- 1 3.0 0.0 34 99
+ 1.14 1 2 cbr 500 ------- 2 1.0 3.1 14 100
- 1.14 1 2 cbr 500 ------- 2 1.0 3.1 14 100
r 1.143911 2 0 ack 40 ------- 1 3.0 0.0 31 91
+ 1.143911 0 2 tcp 1040 ------- 1 0.0 3.0 51 101
r 1.144267 2 3 cbr 500 ------- 2 1.0 3.1 6 78
r 1.144444 1 2 cbr 500 ------- 2 1.0 3.1 12 95
+ 1.144444 2 3 cbr 500 ------- 2 1.0 3.1 12 95
- 1.147111 0 2 tcp 1040 ------- 1 0.0 3.0 45 82
- 1.1472 2 3 cbr 500 ------- 2 1.0 3.1 8 85
r 1.148622 0 2 tcp 1040 ------- 1 0.0 3.0 42 74
+ 1.148622 2 3 tcp 1040 ------- 1 0.0 3.0 42 74
+ 1.15 1 2 cbr 500 ------- 2 1.0 3.1 15 102
- 1.15 1 2 cbr 500 ------- 2 1.0 3.1 15 102
r 1.150933 3 2 ack 40 ------- 1 3.0 0.0 33 98
+ 1.150933 2 0 ack 40 ------- 1 3.0 0.0 33 98
- 1.150933 2 0 ack 40 ------- 1 3.0 0.0 33 98
- 1.151644 2 3 tcp 1040 ------- 1 0.0 3.0 37 61
r 1.153511 2 3 tcp 1040 ------- 1 0.0 3.0 35 57
+ 1.153511 3 2 ack 40 ------- 1 3.0 0.0 35 103
- 1.153511 3 2 ack 40 ------- 1 3.0 0.0 35 103
r 1.154444 1 2 cbr 500 ------- 2 1.0 3.1 13 96
+ 1.154444 2 3 cbr 500 ------- 2 1.0 3.1 13 96
- 1.156356 0 2 tcp 1040 ------- 1 0.0 3.0 46 84
r 1.1576 2 0 ack 40 ------- 1 3.0 0.0 32 94
+ 1.1576 0 2 tcp 1040 ------- 1 0.0 3.0 52 104
r 1.157867 0 2 tcp 1040 ------- 1 0.0 3.0 43 77
+ 1.157867 2 3 tcp 1040 ------- 1 0.0 3.0 43 77
r 1.157956 2 3 cbr 500 ------- 2 1.0 3.1 7 81
+ 1.16 1 2 cbr 500 ------- 2 1.0 3.1 16 105
- 1.16 1 2 cbr 500 ------- 2 1.0 3.1 16 105
r 1.160178 3 2 ack 40 ------- 1 3.0 0.0 34 99
+ 1.160178 2 0 ack 40 ------- 1 3.0 0.0 34 99
- 1.160178 2 0 ack 40 ------- 1 3.0 0.0 34 99
- 1.160889 2 3 cbr 500 ------- 2 1.0 3.1 9 88
r 1.164444 1 2 cbr 500 ------- 2 1.0 3.1 14 100
+ 1.164444 2 3 cbr 500 ------- 2 1.0 3.1 14 100
- 1.165333 2 3 tcp 1040 ------- 1 0.0 3.0 39 65
- 1.1656 0 2 tcp 1040 ------- 1 0.0 3.0 47 86
r 1.167111 0 2 tcp 1040 ------- 1 0.0 3.0 44 79
+ 1.167111 2 3 tcp 1040 ------- 1 0.0 3.0 44 79
r 1.1672 2 3 tcp 1040 ------- 1 0.0 3.0 36 58
+ 1.1672 3 2 ack 40 ------- 1 3.0 0.0 36 106
- 1.1672 3 2 ack 40 ------- 1 3.0 0.0 36 106
+ 1.17 1 2 cbr 500 ------- 2 1.0 3.1 17 107
- 1.17 1 2 cbr 500 ------- 2 1.0 3.1 17 107
r 1.171289 2 0 ack 40 ------- 1 3.0 0.0 33 98
+ 1.171289 0 2 tcp 1040 ------- 1 0.0 3.0 53 108
r 1.171644 2 3 cbr 500 ------- 2 1.0 3.1 8 85
r 1.173867 3 2 ack 40 ------- 1 3.0 0.0 35 103
+ 1.173867 2 0 ack 40 ------- 1 3.0 0.0 35 103
- 1.173867 2 0 ack 40 ------- 1 3.0 0.0 35 103
r 1.174444 1 2 cbr 500 ------- 2 1.0 3.1 15 102
+ 1.174444 2 3 cbr 500 ------- 2 1.0 3.1 15 102
- 1.174578 2 3 cbr 500 ------- 2 1.0 3.1 10 89
- 1.174844 0 2 tcp 1040 ------- 1 0.0 3.0 48 90
r 1.176356 0 2 tcp 1040 ------- 1 0.0 3.0 45 82
+ 1.176356 2 3 tcp 1040 ------- 1 0.0 3.0 45 82
- 1.179022 2 3 tcp 1040 ------- 1 0.0 3.0 40 68
+ 1.18 1 2 cbr 500 ------- 2 1.0 3.1 18 109
- 1.18 1 2 cbr 500 ------- 2 1.0 3.1 18 109
r 1.180533 2 0 ack 40 ------- 1 3.0 0.0 34 99
+ 1.180533 0 2 tcp 1040 ------- 1 0.0 3.0 54 110
r 1.180889 2 3 tcp 1040 ------- 1 0.0 3.0 37 61
+ 1.180889 3 2 ack 40 ------- 1 3.0 0.0 37 111
- 1.180889 3 2 ack 40 ------- 1 3.0 0.0 37 111
- 1.184089 0 2 tcp 1040 ------- 1 0.0 3.0 49 93
r 1.184444 1 2 cbr 500 ------- 2 1.0 3.1 16 105
+ 1.184444 2 3 cbr 500 ------- 2 1.0 3.1 16 105
r 1.185333 2 3 cbr 500 ------- 2 1.0 3.1 9 88
r 1.1856 0 2 tcp 1040 ------- 1 0.0 3.0 46 84
+ 1.1856 2 3 tcp 1040 ------- 1 0.0 3.0 46 84
r 1.187556 3 2 ack 40 ------- 1 3.0 0.0 36 106
+ 1.187556 2 0 ack 40 ------- 1 3.0 0.0 36 106
- 1.187556 2 0 ack 40 ------- 1 3.0 0.0 36 106
- 1.188267 2 3 cbr 500 ------- 2 1.0 3.1 11 92
+ 1.19 1 2 cbr 500 ------- 2 1.0 3.1 19 112
- 1.19 1 2 cbr 500 ------- 2 1.0 3.1 19 112
- 1.192711 2 3 tcp 1040 ------- 1 0.0 3.0 41 71
- 1.193333 0 2 tcp 1040 ------- 1 0.0 3.0 50 97
r 1.194222 2 0 ack 40 ------- 1 3.0 0.0 35 103
+ 1.194222 0 2 tcp 1040 ------- 1 0.0 3.0 55 113
r 1.194444 1 2 cbr 500 ------- 2 1.0 3.1 17 107
+ 1.194444 2 3 cbr 500 ------- 2 1.0 3.1 17 107
r 1.194578 2 3 tcp 1040 ------- 1 0.0 3.0 39 65
+ 1.194578 3 2 ack 40 ------- 1 3.0 0.0 37 114
- 1.194578 3 2 ack 40 ------- 1 3.0 0.0 37 114
r 1.194844 0 2 tcp 1040 ------- 1 0.0 3.0 47 86
+ 1.194844 2 3 tcp 1040 ------- 1 0.0 3.0 47 86
r 1.199022 2 3 cbr 500 ------- 2 1.0 3.1 10 89
+ 1.2 1 2 cbr 500 ------- 2 1.0 3.1 20 115
- 1.2 1 2 cbr 500 ------- 2 1.0 3.1 20 115
r 1.201244 3 2 ack 40 ------- 1 3.0 0.0 37 111
+ 1.201244 2 0 ack 40 ------- 1 3.0 0.0 37 111
- 1.201244 2 0 ack 40 ------- 1 3.0 0.0 37 111
- 1.201956 2 3 cbr 500 ------- 2 1.0 3.1 12 95
- 1.202578 0 2 tcp 1040 ------- 1 0.0 3.0 51 101
r 1.204089 0 2 tcp 1040 ------- 1 0.0 3.0 48 90
+ 1.204089 2 3 tcp 1040 ------- 1 0.0 3.0 48 90
r 1.204444 1 2 cbr 500 ------- 2 1.0 3.1 18 109
+ 1.204444 2 3 cbr 500 ------- 2 1.0 3.1 18 109
- 1.2064 2 3 tcp 1040 ------- 1 0.0 3.0 42 74
r 1.207911 2 0 ack 40 ------- 1 3.0 0.0 36 106
+ 1.207911 0 2 tcp 1040 ------- 1 0.0 3.0 56 116
r 1.208267 2 3 tcp 1040 ------- 1 0.0 3.0 40 68
+ 1.208267 3 2 ack 40 ------- 1 3.0 0.0 37 117
- 1.208267 3 2 ack 40 ------- 1 3.0 0.0 37 117
+ 1.21 1 2 cbr 500 ------- 2 1.0 3.1 21 118
- 1.21 1 2 cbr 500 ------- 2 1.0 3.1 21 118
- 1.211822 0 2 tcp 1040 ------- 1 0.0 3.0 52 104
r 1.212711 2 3 cbr 500 ------- 2 1.0 3.1 11 92
r 1.213333 0 2 tcp 1040 ------- 1 0.0 3.0 49 93
+ 1.213333 2 3 tcp 1040 ------- 1 0.0 3.0 49 93
r 1.214444 1 2 cbr 500 ------- 2 1.0 3.1 19 112
+ 1.214444 2 3 cbr 500 ------- 2 1.0 3.1 19 112
r 1.214933 3 2 ack 40 ------- 1 3.0 0.0 37 114
+ 1.214933 2 0 ack 40 ------- 1 3.0 0.0 37 114
- 1.214933 2 0 ack 40 ------- 1 3.0 0.0 37 114
- 1.215644 2 3 cbr 500 ------- 2 1.0 3.1 13 96
+ 1.22 1 2 cbr 500 ------- 2 1.0 3.1 22 119
- 1.22 1 2 cbr 500 ------- 2 1.0 3.1 22 119
- 1.220089 2 3 tcp 1040 ------- 1 0.0 3.0 43 77
- 1.221067 0 2 tcp 1040 ------- 1 0.0 3.0 53 108
r 1.2216 2 0 ack 40 ------- 1 3.0 0.0 37 111
+ 1.2216 0 2 tcp 1040 ------- 1 0.0 3.0 57 120
r 1.221956 2 3 tcp 1040 ------- 1 0.0 3.0 41 71
+ 1.221956 3 2 ack 40 ------- 1 3.0 0.0 37 121
- 1.221956 3 2 ack 40 ------- 1 3.0 0.0 37 121
r 1.222578 0 2 tcp 1040 ------- 1 0.0 3.0 50 97
+ 1.222578 2 3 tcp 1040 ------- 1 0.0 3.0 50 97
r 1.224444 1 2 cbr 500 ------- 2 1.0 3.1 20 115
+ 1.224444 2 3 cbr 500 ------- 2 1.0 3.1 20 115
r 1.2264 2 3 cbr 500 ------- 2 1.0 3.1 12 95