+ 0.6 1 2 tcp 40 ------- 2 1.0 3.1 0 0
- 0.6 1 2 tcp 40 ------- 2 1.0 3.1 0 0
r 0.61516 1 2 tcp 40 ------- 2 1.0 3.1 0 0
+ 0.61516 2 3 tcp 40 ------- 2 1.0 3.1 0 0
- 0.61516 2 3 tcp 40 ------- 2 1.0 3.1 0 0
r 0.625267 2 3 tcp 40 ------- 2 1.0 3.1 0 0
+ 0.625267 3 2 ack 40 ------- 2 3.1 1.0 0 1
- 0.625267 3 2 ack 40 ------- 2 3.1 1.0 0 1
r 0.635373 3 2 ack 40 ------- 2 3.1 1.0 0 1
+ 0.635373 2 1 ack 40 ------- 2 3.1 1.0 0 1
- 0.635373 2 1 ack 40 ------- 2 3.1 1.0 0 1
r 0.650533 2 1 ack 40 ------- 2 3.1 1.0 0 1
+ 0.650533 1 2 tcp 1040 ------- 2 1.0 3.1 1 2
- 0.650533 1 2 tcp 1040 ------- 2 1.0 3.1 1 2
+ 0.650533 1 2 tcp 1040 ------- 2 1.0 3.1 2 3
- 0.654693 1 2 tcp 1040 ------- 2 1.0 3.1 2 3
r 0.669693 1 2 tcp 1040 ------- 2 1.0 3.1 1 2
+ 0.669693 2 3 tcp 1040 ------- 2 1.0 3.1 1 2
- 0.669693 2 3 tcp 1040 ------- 2 1.0 3.1 1 2
r 0.673853 1 2 tcp 1040 ------- 2 1.0 3.1 2 3
+ 0.673853 2 3 tcp 1040 ------- 2 1.0 3.1 2 3
- 0.673853 2 3 tcp 1040 ------- 2 1.0 3.1 2 3
r 0.682467 2 3 tcp 1040 ------- 2 1.0 3.1 1 2
+ 0.682467 3 2 ack 40 ------- 2 3.1 1.0 1 4
- 0.682467 3 2 ack 40 ------- 2 3.1 1.0 1 4
r 0.686627 2 3 tcp 1040 ------- 2 1.0 3.1 2 3
+ 0.686627 3 2 ack 40 ------- 2 3.1 1.0 2 5
- 0.686627 3 2 ack 40 ------- 2 3.1 1.0 2 5
r 0.692573 3 2 ack 40 ------- 2 3.1 1.0 1 4
+ 0.692573 2 1 ack 40 ------- 2 3.1 1.0 1 4
- 0.692573 2 1 ack 40 ------- 2 3.1 1.0 1 4
r 0.696733 3 2 ack 40 ------- 2 3.1 1.0 2 5
+ 0.696733 2 1 ack 40 ------- 2 3.1 1.0 2 5
- 0.696733 2 1 ack 40 ------- 2 3.1 1.0 2 5
r 0.707733 2 1 ack 40 ------- 2 3.1 1.0 1 4
+ 0.707733 1 2 tcp 1040 ------- 2 1.0 3.1 3 6
- 0.707733 1 2 tcp 1040 ------- 2 1.0 3.1 3 6
+ 0.707733 1 2 tcp 1040 ------- 2 1.0 3.1 4 7
+ 0.70779 0 2 tcp 40 ------- 1 0.0 3.0 0 8
- 0.70779 0 2 tcp 40 ------- 1 0.0 3.0 0 8
r 0.711893 2 1 ack 40 ------- 2 3.1 1.0 2 5
+ 0.711893 1 2 tcp 1040 ------- 2 1.0 3.1 5 9
+ 0.711893 1 2 tcp 1040 ------- 2 1.0 3.1 6 10
- 0.711893 1 2 tcp 1040 ------- 2 1.0 3.1 4 7
- 0.716053 1 2 tcp 1040 ------- 2 1.0 3.1 5 9
r 0.717897 0 2 tcp 40 ------- 1 0.0 3.0 0 8
+ 0.717897 2 3 tcp 40 ------- 1 0.0 3.0 0 8
- 0.717897 2 3 tcp 40 ------- 1 0.0 3.0 0 8
- 0.720213 1 2 tcp 1040 ------- 2 1.0 3.1 6 10
r 0.726893 1 2 tcp 1040 ------- 2 1.0 3.1 3 6
+ 0.726893 2 3 tcp 1040 ------- 2 1.0 3.1 3 6
- 0.726893 2 3 tcp 1040 ------- 2 1.0 3.1 3 6
r 0.728004 2 3 tcp 40 ------- 1 0.0 3.0 0 8
+ 0.728004 3 2 ack 40 ------- 1 3.0 0.0 0 11
- 0.728004 3 2 ack 40 ------- 1 3.0 0.0 0 11
r 0.731053 1 2 tcp 1040 ------- 2 1.0 3.1 4 7
+ 0.731053 2 3 tcp 1040 ------- 2 1.0 3.1 4 7
- 0.731053 2 3 tcp 1040 ------- 2 1.0 3.1 4 7
r 0.735213 1 2 tcp 1040 ------- 2 1.0 3.1 5 9
+ 0.735213 2 3 tcp 1040 ------- 2 1.0 3.1 5 9
- 0.735213 2 3 tcp 1040 ------- 2 1.0 3.1 5 9
r 0.73811 3 2 ack 40 ------- 1 3.0 0.0 0 11
+ 0.73811 2 0 ack 40 ------- 1 3.0 0.0 0 11
- 0.73811 2 0 ack 40 ------- 1 3.0 0.0 0 11
r 0.739373 1 2 tcp 1040 ------- 2 1.0 3.1 6 10
+ 0.739373 2 3 tcp 1040 ------- 2 1.0 3.1 6 10
- 0.739373 2 3 tcp 1040 ------- 2 1.0 3.1 6 10
r 0.739667 2 3 tcp 1040 ------- 2 1.0 3.1 3 6
+ 0.739667 3 2 ack 40 ------- 2 3.1 1.0 3 12
- 0.739667 3 2 ack 40 ------- 2 3.1 1.0 3 12
r 0.743827 2 3 tcp 1040 ------- 2 1.0 3.1 4 7
+ 0.743827 3 2 ack 40 ------- 2 3.1 1.0 4 13
- 0.743827 3 2 ack 40 ------- 2 3.1 1.0 4 13
r 0.747987 2 3 tcp 1040 ------- 2 1.0 3.1 5 9
+ 0.747987 3 2 ack 40 ------- 2 3.1 1.0 5 14
- 0.747987 3 2 ack 40 ------- 2 3.1 1.0 5 14
r 0.748217 2 0 ack 40 ------- 1 3.0 0.0 0 11
+ 0.748217 0 2 tcp 1040 ------- 1 0.0 3.0 1 15
- 0.748217 0 2 tcp 1040 ------- 1 0.0 3.0 1 15
r 0.749773 3 2 ack 40 ------- 2 3.1 1.0 3 12
+ 0.749773 2 1 ack 40 ------- 2 3.1 1.0 3 12
- 0.749773 2 1 ack 40 ------- 2 3.1 1.0 3 12
r 0.752147 2 3 tcp 1040 ------- 2 1.0 3.1 6 10
+ 0.752147 3 2 ack 40 ------- 2 3.1 1.0 6 16
- 0.752147 3 2 ack 40 ------- 2 3.1 1.0 6 16
r 0.753933 3 2 ack 40 ------- 2 3.1 1.0 4 13
+ 0.753933 2 1 ack 40 ------- 2 3.1 1.0 4 13
- 0.753933 2 1 ack 40 ------- 2 3.1 1.0 4 13
r 0.758093 3 2 ack 40 ------- 2 3.1 1.0 5 14
+ 0.758093 2 1 ack 40 ------- 2 3.1 1.0 5 14
- 0.758093 2 1 ack 40 ------- 2 3.1 1.0 5 14
r 0.76099 0 2 tcp 1040 ------- 1 0.0 3.0 1 15
+ 0.76099 2 3 tcp 1040 ------- 1 0.0 3.0 1 15
- 0.76099 2 3 tcp 1040 ------- 1 0.0 3.0 1 15
r 0.762253 3 2 ack 40 ------- 2 3.1 1.0 6 16
+ 0.762253 2 1 ack 40 ------- 2 3.1 1.0 6 16
- 0.762253 2 1 ack 40 ------- 2 3.1 1.0 6 16
r 0.764933 2 1 ack 40 ------- 2 3.1 1.0 3 12
+ 0.764933 1 2 tcp 1040 ------- 2 1.0 3.1 7 17
- 0.764933 1 2 tcp 1040 ------- 2 1.0 3.1 7 17
+ 0.764933 1 2 tcp 1040 ------- 2 1.0 3.1 8 18
r 0.769093 2 1 ack 40 ------- 2 3.1 1.0 4 13
+ 0.769093 1 2 tcp 1040 ------- 2 1.0 3.1 9 19
+ 0.769093 1 2 tcp 1040 ------- 2 1.0 3.1 10 20
- 0.769093 1 2 tcp 1040 ------- 2 1.0 3.1 8 18
r 0.773253 2 1 ack 40 ------- 2 3.1 1.0 5 14
+ 0.773253 1 2 tcp 1040 ------- 2 1.0 3.1 11 21
+ 0.773253 1 2 tcp 1040 ------- 2 1.0 3.1 12 22
- 0.773253 1 2 tcp 1040 ------- 2 1.0 3.1 9 19
r 0.773764 2 3 tcp 1040 ------- 1 0.0 3.0 1 15
+ 0.773764 3 2 ack 40 ------- 1 3.0 0.0 1 23
- 0.773764 3 2 ack 40 ------- 1 3.0 0.0 1 23
r 0.777413 2 1 ack 40 ------- 2 3.1 1.0 6 16
+ 0.777413 1 2 tcp 1040 ------- 2 1.0 3.1 13 24
+ 0.777413 1 2 tcp 1040 ------- 2 1.0 3.1 14 25
- 0.777413 1 2 tcp 1040 ------- 2 1.0 3.1 10 20
- 0.781573 1 2 tcp 1040 ------- 2 1.0 3.1 11 21
r 0.78387 3 2 ack 40 ------- 1 3.0 0.0 1 23
+ 0.78387 2 0 ack 40 ------- 1 3.0 0.0 1 23
- 0.78387 2 0 ack 40 ------- 1 3.0 0.0 1 23
r 0.784093 1 2 tcp 1040 ------- 2 1.0 3.1 7 17
+ 0.784093 2 3 tcp 1040 ------- 2 1.0 3.1 7 17
- 0.784093 2 3 tcp 1040 ------- 2 1.0 3.1 7 17
- 0.785733 1 2 tcp 1040 ------- 2 1.0 3.1 12 22
r 0.788253 1 2 tcp 1040 ------- 2 1.0 3.1 8 18
+ 0.788253 2 3 tcp 1040 ------- 2 1.0 3.1 8 18
- 0.788253 2 3 tcp 1040 ------- 2 1.0 3.1 8 18
- 0.789893 1 2 tcp 1040 ------- 2 1.0 3.1 13 24
r 0.792413 1 2 tcp 1040 ------- 2 1.0 3.1 9 19
+ 0.792413 2 3 tcp 1040 ------- 2 1.0 3.1 9 19
- 0.792413 2 3 tcp 1040 ------- 2 1.0 3.1 9 19
r 0.793977 2 0 ack 40 ------- 1 3.0 0.0 1 23
- 0.794053 1 2 tcp 1040 ------- 2 1.0 3.1 14 25
r 0.796573 1 2 tcp 1040 ------- 2 1.0 3.1 10 20
+ 0.796573 2 3 tcp 1040 ------- 2 1.0 3.1 10 20
- 0.796573 2 3 tcp 1040 ------- 2 1.0 3.1 10 20
r 0.796867 2 3 tcp 1040 ------- 2 1.0 3.1 7 17
+ 0.796867 3 2 ack 40 ------- 2 3.1 1.0 7 26
- 0.796867 3 2 ack 40 ------- 2 3.1 1.0 7 26
r 0.800733 1 2 tcp 1040 ------- 2 1.0 3.1 11 21
+ 0.800733 2 3 tcp 1040 ------- 2 1.0 3.1 11 21
- 0.800733 2 3 tcp 1040 ------- 2 1.0 3.1 11 21
r 0.801027 2 3 tcp 1040 ------- 2 1.0 3.1 8 18
+ 0.801027 3 2 ack 40 ------- 2 3.1 1.0 8 27
- 0.801027 3 2 ack 40 ------- 2 3.1 1.0 8 27
r 0.804893 1 2 tcp 1040 ------- 2 1.0 3.1 12 22
+ 0.804893 2 3 tcp 1040 ------- 2 1.0 3.1 12 22
- 0.804893 2 3 tcp 1040 ------- 2 1.0 3.1 12 22
r 0.805187 2 3 tcp 1040 ------- 2 1.0 3.1 9 19
+ 0.805187 3 2 ack 40 ------- 2 3.1 1.0 9 28
- 0.805187 3 2 ack 40 ------- 2 3.1 1.0 9 28
r 0.806973 3 2 ack 40 ------- 2 3.1 1.0 7 26
+ 0.806973 2 1 ack 40 ------- 2 3.1 1.0 7 26
- 0.806973 2 1 ack 40 ------- 2 3.1 1.0 7 26
r 0.809053 1 2 tcp 1040 ------- 2 1.0 3.1 13 24
+ 0.809053 2 3 tcp 1040 ------- 2 1.0 3.1 13 24
- 0.809053 2 3 tcp 1040 ------- 2 1.0 3.1 13 24
r 0.809347 2 3 tcp 1040 ------- 2 1.0 3.1 10 20
+ 0.809347 3 2 ack 40 ------- 2 3.1 1.0 10 29
- 0.809347 3 2 ack 40 ------- 2 3.1 1.0 10 29
r 0.811133 3 2 ack 40 ------- 2 3.1 1.0 8 27
+ 0.811133 2 1 ack 40 ------- 2 3.1 1.0 8 27
- 0.811133 2 1 ack 40 ------- 2 3.1 1.0 8 27
r 0.813213 1 2 tcp 1040 ------- 2 1.0 3.1 14 25
+ 0.813213 2 3 tcp 1040 ------- 2 1.0 3.1 14 25
- 0.813213 2 3 tcp 1040 ------- 2 1.0 3.1 14 25
r 0.813507 2 3 tcp 1040 ------- 2 1.0 3.1 11 21
+ 0.813507 3 2 ack 40 ------- 2 3.1 1.0 11 30
- 0.813507 3 2 ack 40 ------- 2 3.1 1.0 11 30
r 0.815293 3 2 ack 40 ------- 2 3.1 1.0 9 28
+ 0.815293 2 1 ack 40 ------- 2 3.1 1.0 9 28
- 0.815293 2 1 ack 40 ------- 2 3.1 1.0 9 28
r 0.817667 2 3 tcp 1040 ------- 2 1.0 3.1 12 22
+ 0.817667 3 2 ack 40 ------- 2 3.1 1.0 12 31
- 0.817667 3 2 ack 40 ------- 2 3.1 1.0 12 31
r 0.819453 3 2 ack 40 ------- 2 3.1 1.0 10 29
+ 0.819453 2 1 ack 40 ------- 2 3.1 1.0 10 29
- 0.819453 2 1 ack 40 ------- 2 3.1 1.0 10 29
r 0.821827 2 3 tcp 1040 ------- 2 1.0 3.1 13 24
+ 0.821827 3 2 ack 40 ------- 2 3.1 1.0 13 32
- 0.821827 3 2 ack 40 ------- 2 3.1 1.0 13 32
r 0.822133 2 1 ack 40 ------- 2 3.1 1.0 7 26
+ 0.822133 1 2 tcp 1040 ------- 2 1.0 3.1 15 33
- 0.822133 1 2 tcp 1040 ------- 2 1.0 3.1 15 33
+ 0.822133 1 2 tcp 1040 ------- 2 1.0 3.1 16 34
r 0.823613 3 2 ack 40 ------- 2 3.1 1.0 11 30
+ 0.823613 2 1 ack 40 ------- 2 3.1 1.0 11 30
- 0.823613 2 1 ack 40 ------- 2 3.1 1.0 11 30
r 0.825987 2 3 tcp 1040 ------- 2 1.0 3.1 14 25
+ 0.825987 3 2 ack 40 ------- 2 3.1 1.0 14 35
- 0.825987 3 2 ack 40 ------- 2 3.1 1.0 14 35
r 0.826293 2 1 ack 40 ------- 2 3.1 1.0 8 27
+ 0.826293 1 2 tcp 1040 ------- 2 1.0 3.1 17 36
+ 0.826293 1 2 tcp 1040 ------- 2 1.0 3.1 18 37
- 0.826293 1 2 tcp 1040 ------- 2 1.0 3.1 16 34
r 0.827773 3 2 ack 40 ------- 2 3.1 1.0 12 31
+ 0.827773 2 1 ack 40 ------- 2 3.1 1.0 12 31
- 0.827773 2 1 ack 40 ------- 2 3.1 1.0 12 31
r 0.830453 2 1 ack 40 ------- 2 3.1 1.0 9 28
+ 0.830453 1 2 tcp 1040 ------- 2 1.0 3.1 19 38
+ 0.830453 1 2 tcp 1040 ------- 2 1.0 3.1 20 39
- 0.830453 1 2 tcp 1040 ------- 2 1.0 3.1 17 36
r 0.831933 3 2 ack 40 ------- 2 3.1 1.0 13 32
+ 0.831933 2 1 ack 40 ------- 2 3.1 1.0 13 32
- 0.831933 2 1 ack 40 ------- 2 3.1 1.0 13 32
r 0.834613 2 1 ack 40 ------- 2 3.1 1.0 10 29
+ 0.834613 1 2 tcp 1040 ------- 2 1.0 3.1 21 40
+ 0.834613 1 2 tcp 1040 ------- 2 1.0 3.1 22 41
- 0.834613 1 2 tcp 1040 ------- 2 1.0 3.1 18 37
r 0.836093 3 2 ack 40 ------- 2 3.1 1.0 14 35
+ 0.836093 2 1 ack 40 ------- 2 3.1 1.0 14 35
- 0.836093 2 1 ack 40 ------- 2 3.1 1.0 14 35
r 0.838773 2 1 ack 40 ------- 2 3.1 1.0 11 30
+ 0.838773 1 2 tcp 1040 ------- 2 1.0 3.1 23 42
+ 0.838773 1 2 tcp 1040 ------- 2 1.0 3.1 24 43
- 0.838773 1 2 tcp 1040 ------- 2 1.0 3.1 19 38
r 0.841293 1 2 tcp 1040 ------- 2 1.0 3.1 15 33
+ 0.841293 2 3 tcp 1040 ------- 2 1.0 3.1 15 33
- 0.841293 2 3 tcp 1040 ------- 2 1.0 3.1 15 33
r 0.842933 2 1 ack 40 ------- 2 3.1 1.0 12 31
+ 0.842933 1 2 tcp 1040 ------- 2 1.0 3.1 25 44
+ 0.842933 1 2 tcp 1040 ------- 2 1.0 3.1 26 45
- 0.842933 1 2 tcp 1040 ------- 2 1.0 3.1 20 39
r 0.845453 1 2 tcp 1040 ------- 2 1.0 3.1 16 34
+ 0.845453 2 3 tcp 1040 ------- 2 1.0 3.1 16 34
- 0.845453 2 3 tcp 1040 ------- 2 1.0 3.1 16 34
r 0.847093 2 1 ack 40 ------- 2 3.1 1.0 13 32
+ 0.847093 1 2 tcp 1040 ------- 2 1.0 3.1 27 46
+ 0.847093 1 2 tcp 1040 ------- 2 1.0 3.1 28 47
- 0.847093 1 2 tcp 1040 ------- 2 1.0 3.1 21 40
r 0.849613 1 2 tcp 1040 ------- 2 1.0 3.1 17 36
+ 0.849613 2 3 tcp 1040 ------- 2 1.0 3.1 17 36
- 0.849613 2 3 tcp 1040 ------- 2 1.0 3.1 17 36
r 0.851253 2 1 ack 40 ------- 2 3.1 1.0 14 35
+ 0.851253 1 2 tcp 1040 ------- 2 1.0 3.1 29 48
+ 0.851253 1 2 tcp 1040 ------- 2 1.0 3.1 30 49
- 0.851253 1 2 tcp 1040 ------- 2 1.0 3.1 22 41
r 0.853773 1 2 tcp 1040 ------- 2 1.0 3.1 18 37
+ 0.853773 2 3 tcp 1040 ------- 2 1.0 3.1 18 37
- 0.853773 2 3 tcp 1040 ------- 2 1.0 3.1 18 37
r 0.854067 2 3 tcp 1040 ------- 2 1.0 3.1 15 33
+ 0.854067 3 2 ack 40 ------- 2 3.1 1.0 15 50
- 0.854067 3 2 ack 40 ------- 2 3.1 1.0 15 50
- 0.855413 1 2 tcp 1040 ------- 2 1.0 3.1 23 42
r 0.857933 1 2 tcp 1040 ------- 2 1.0 3.1 19 38
+ 0.857933 2 3 tcp 1040 ------- 2 1.0 3.1 19 38
- 0.857933 2 3 tcp 1040 ------- 2 1.0 3.1 19 38
r 0.858227 2 3 tcp 1040 ------- 2 1.0 3.1 16 34
+ 0.858227 3 2 ack 40 ------- 2 3.1 1.0 16 51
- 0.858227 3 2 ack 40 ------- 2 3.1 1.0 16 51
- 0.859573 1 2 tcp 1040 ------- 2 1.0 3.1 24 43
r 0.862093 1 2 tcp 1040 ------- 2 1.0 3.1 20 39
+ 0.862093 2 3 tcp 1040 ------- 2 1.0 3.1 20 39
- 0.862093 2 3 tcp 1040 ------- 2 1.0 3.1 20 39
r 0.862387 2 3 tcp 1040 ------- 2 1.0 3.1 17 36
+ 0.862387 3 2 ack 40 ------- 2 3.1 1.0 17 52
- 0.862387 3 2 ack 40 ------- 2 3.1 1.0 17 52
- 0.863733 1 2 tcp 1040 ------- 2 1.0 3.1 25 44
r 0.864173 3 2 ack 40 ------- 2 3.1 1.0 15 50
+ 0.864173 2 1 ack 40 ------- 2 3.1 1.0 15 50
- 0.864173 2 1 ack 40 ------- 2 3.1 1.0 15 50
r 0.866253 1 2 tcp 1040 ------- 2 1.0 3.1 21 40
+ 0.866253 2 3 tcp 1040 ------- 2 1.0 3.1 21 40
- 0.866253 2 3 tcp 1040 ------- 2 1.0 3.1 21 40
r 0.866547 2 3 tcp 1040 ------- 2 1.0 3.1 18 37
+ 0.866547 3 2 ack 40 ------- 2 3.1 1.0 18 53
- 0.866547 3 2 ack 40 ------- 2 3.1 1.0 18 53
- 0.867893 1 2 tcp 1040 ------- 2 1.0 3.1 26 45
r 0.868333 3 2 ack 40 ------- 2 3.1 1.0 16 51
+ 0.868333 2 1 ack 40 ------- 2 3.1 1.0 16 51
- 0.868333 2 1 ack 40 ------- 2 3.1 1.0 16 51
r 0.870413 1 2 tcp 1040 ------- 2 1.0 3.1 22 41
+ 0.870413 2 3 tcp 1040 ------- 2 1.0 3.1 22 41
- 0.870413 2 3 tcp 1040 ------- 2 1.0 3.1 22 41
r 0.870707 2 3 tcp 1040 ------- 2 1.0 3.1 19 38
+ 0.870707 3 2 ack 40 ------- 2 3.1 1.0 19 54
- 0.870707 3 2 ack 40 ------- 2 3.1 1.0 19 54
- 0.872053 1 2 tcp 1040 ------- 2 1.0 3.1 27 46
r 0.872493 3 2 ack 40 ------- 2 3.1 1.0 17 52
+ 0.872493 2 1 ack 40 ------- 2 3.1 1.0 17 52
- 0.872493 2 1 ack 40 ------- 2 3.1 1.0 17 52
r 0.874573 1 2 tcp 1040 ------- 2 1.0 3.1 23 42
+ 0.874573 2 3 tcp 1040 ------- 2 1.0 3.1 23 42
- 0.874573 2 3 tcp 1040 ------- 2 1.0 3.1 23 42
r 0.874867 2 3 tcp 1040 ------- 2 1.0 3.1 20 39
+ 0.874867 3 2 ack 40 ------- 2 3.1 1.0 20 55
- 0.874867 3 2 ack 40 ------- 2 3.1 1.0 20 55
- 0.876213 1 2 tcp 1040 ------- 2 1.0 3.1 28 47
r 0.876653 3 2 ack 40 ------- 2 3.1 1.0 18 53
+ 0.876653 2 1 ack 40 ------- 2 3.1 1.0 18 53
- 0.876653 2 1 ack 40 ------- 2 3.1 1.0 18 53
r 0.878733 1 2 tcp 1040 ------- 2 1.0 3.1 24 43
+ 0.878733 2 3 tcp 1040 ------- 2 1.0 3.1 24 43
- 0.878733 2 3 tcp 1040 ------- 2 1.0 3.1 24 43
r 0.879027 2 3 tcp 1040 ------- 2 1.0 3.1 21 40
+ 0.879027 3 2 ack 40 ------- 2 3.1 1.0 21 56
- 0.879027 3 2 ack 40 ------- 2 3.1 1.0 21 56
r 0.879333 2 1 ack 40 ------- 2 3.1 1.0 15 50
+ 0.879333 1 2 tcp 1040 ------- 2 1.0 3.1 31 57
+ 0.879333 1 2 tcp 1040 ------- 2 1.0 3.1 32 58
- 0.880373 1 2 tcp 1040 ------- 2 1.0 3.1 29 48
r 0.880813 3 2 ack 40 ------- 2 3.1 1.0 19 54
+ 0.880813 2 1 ack 40 ------- 2 3.1 1.0 19 54
- 0.880813 2 1 ack 40 ------- 2 3.1 1.0 19 54
r 0.882893 1 2 tcp 1040 ------- 2 1.0 3.1 25 44
+ 0.882893 2 3 tcp 1040 ------- 2 1.0 3.1 25 44
- 0.882893 2 3 tcp 1040 ------- 2 1.0 3.1 25 44
r 0.883187 2 3 tcp 1040 ------- 2 1.0 3.1 22 41
+ 0.883187 3 2 ack 40 ------- 2 3.1 1.0 22 59
- 0.883187 3 2 ack 40 ------- 2 3.1 1.0 22 59
r 0.883493 2 1 ack 40 ------- 2 3.1 1.0 16 51
+ 0.883493 1 2 tcp 1040 ------- 2 1.0 3.1 33 60
+ 0.883493 1 2 tcp 1040 ------- 2 1.0 3.1 34 61
- 0.884533 1 2 tcp 1040 ------- 2 1.0 3.1 30 49
r 0.884973 3 2 ack 40 ------- 2 3.1 1.0 20 55
+ 0.884973 2 1 ack 40 ------- 2 3.1 1.0 20 55
- 0.884973 2 1 ack 40 ------- 2 3.1 1.0 20 55
r 0.887053 1 2 tcp 1040 ------- 2 1.0 3.1 26 45
+ 0.887053 2 3 tcp 1040 ------- 2 1.0 3.1 26 45
- 0.887053 2 3 tcp 1040 ------- 2 1.0 3.1 26 45
r 0.887347 2 3 tcp 1040 ------- 2 1.0 3.1 23 42
+ 0.887347 3 2 ack 40 ------- 2 3.1 1.0 23 62
- 0.887347 3 2 ack 40 ------- 2 3.1 1.0 23 62
r 0.887653 2 1 ack 40 ------- 2 3.1 1.0 17 52
+ 0.887653 1 2 tcp 1040 ------- 2 1.0 3.1 35 63
+ 0.887653 1 2 tcp 1040 ------- 2 1.0 3.1 36 64
- 0.888693 1 2 tcp 1040 ------- 2 1.0 3.1 31 57
r 0.889133 3 2 ack 40 ------- 2 3.1 1.0 21 56
+ 0.889133 2 1 ack 40 ------- 2 3.1 1.0 21 56
- 0.889133 2 1 ack 40 ------- 2 3.1 1.0 21 56
r 0.891213 1 2 tcp 1040 ------- 2 1.0 3.1 27 46
+ 0.891213 2 3 tcp 1040 ------- 2 1.0 3.1 27 46
- 0.891213 2 3 tcp 1040 ------- 2 1.0 3.1 27 46
r 0.891507 2 3 tcp 1040 ------- 2 1.0 3.1 24 43
+ 0.891507 3 2 ack 40 ------- 2 3.1 1.0 24 65
- 0.891507 3 2 ack 40 ------- 2 3.1 1.0 24 65
r 0.891813 2 1 ack 40 ------- 2 3.1 1.0 18 53
+ 0.891813 1 2 tcp 1040 ------- 2 1.0 3.1 37 66
+ 0.891813 1 2 tcp 1040 ------- 2 1.0 3.1 38 67
- 0.892853 1 2 tcp 1040 ------- 2 1.0 3.1 32 58
r 0.893293 3 2 ack 40 ------- 2 3.1 1.0 22 59
+ 0.893293 2 1 ack 40 ------- 2 3.1 1.0 22 59
- 0.893293 2 1 ack 40 ------- 2 3.1 1.0 22 59
r 0.895373 1 2 tcp 1040 ------- 2 1.0 3.1 28 47
+ 0.895373 2 3 tcp 1040 ------- 2 1.0 3.1 28 47
- 0.895373 2 3 tcp 1040 ------- 2 1.0 3.1 28 47
r 0.895667 2 3 tcp 1040 ------- 2 1.0 3.1 25 44
+ 0.895667 3 2 ack 40 ------- 2 3.1 1.0 25 68
- 0.895667 3 2 ack 40 ------- 2 3.1 1.0 25 68
r 0.895973 2 1 ack 40 ------- 2 3.1 1.0 19 54
+ 0.895973 1 2 tcp 1040 ------- 2 1.0 3.1 39 69
- 0.897013 1 2 tcp 1040 ------- 2 1.0 3.1 33 60
r 0.897453 3 2 ack 40 ------- 2 3.1 1.0 23 62
+ 0.897453 2 1 ack 40 ------- 2 3.1 1.0 23 62
- 0.897453 2 1 ack 40 ------- 2 3.1 1.0 23 62
r 0.899533 1 2 tcp 1040 ------- 2 1.0 3.1 29 48
+ 0.899533 2 3 tcp 1040 ------- 2 1.0 3.1 29 48
- 0.899533 2 3 tcp 1040 ------- 2 1.0 3.1 29 48
r 0.899827 2 3 tcp 1040 ------- 2 1.0 3.1 26 45
+ 0.899827 3 2 ack 40 ------- 2 3.1 1.0 26 70
- 0.899827 3 2 ack 40 ------- 2 3.1 1.0 26 70
r 0.900133 2 1 ack 40 ------- 2 3.1 1.0 20 55
+ 0.900133 1 2 tcp 1040 ------- 2 1.0 3.1 40 71
- 0.901173 1 2 tcp 1040 ------- 2 1.0 3.1 34 61
r 0.901613 3 2 ack 40 ------- 2 3.1 1.0 24 65
+ 0.901613 2 1 ack 40 ------- 2 3.1 1.0 24 65
- 0.901613 2 1 ack 40 ------- 2 3.1 1.0 24 65
r 0.903693 1 2 tcp 1040 ------- 2 1.0 3.1 30 49
+ 0.903693 2 3 tcp 1040 ------- 2 1.0 3.1 30 49
- 0.903693 2 3 tcp 1040 ------- 2 1.0 3.1 30 49
r 0.903987 2 3 tcp 1040 ------- 2 1.0 3.1 27 46
+ 0.903987 3 2 ack 40 ------- 2 3.1 1.0 27 72
- 0.903987 3 2 ack 40 ------- 2 3.1 1.0 27 72
r 0.904293 2 1 ack 40 ------- 2 3.1 1.0 21 56
+ 0.904293 1 2 tcp 1040 ------- 2 1.0 3.1 41 73
- 0.905333 1 2 tcp 1040 ------- 2 1.0 3.1 35 63
r 0.905773 3 2 ack 40 ------- 2 3.1 1.0 25 68
+ 0.905773 2 1 ack 40 ------- 2 3.1 1.0 25 68
- 0.905773 2 1 ack 40 ------- 2 3.1 1.0 25 68
r 0.907853 1 2 tcp 1040 ------- 2 1.0 3.1 31 57
+ 0.907853 2 3 tcp 1040 ------- 2 1.0 3.1 31 57
- 0.907853 2 3 tcp 1040 ------- 2 1.0 3.1 31 57
r 0.908147 2 3 tcp 1040 ------- 2 1.0 3.1 28 47
+ 0.908147 3 2 ack 40 ------- 2 3.1 1.0 28 74
- 0.908147 3 2 ack 40 ------- 2 3.1 1.0 28 74
r 0.908453 2 1 ack 40 ------- 2 3.1 1.0 22 59
+ 0.908453 1 2 tcp 1040 ------- 2 1.0 3.1 42 75
- 0.909493 1 2 tcp 1040 ------- 2 1.0 3.1 36 64
r 0.909933 3 2 ack 40 ------- 2 3.1 1.0 26 70
+ 0.909933 2 1 ack 40 ------- 2 3.1 1.0 26 70
- 0.909933 2 1 ack 40 ------- 2 3.1 1.0 26 70
r 0.912013 1 2 tcp 1040 ------- 2 1.0 3.1 32 58
+ 0.912013 2 3 tcp 1040 ------- 2 1.0 3.1 32 58
- 0.912013 2 3 tcp 1040 ------- 2 1.0 3.1 32 58
r 0.912307 2 3 tcp 1040 ------- 2 1.0 3.1 29 48
+ 0.912307 3 2 ack 40 ------- 2 3.1 1.0 29 76
- 0.912307 3 2 ack 40 ------- 2 3.1 1.0 29 76
r 0.912613 2 1 ack 40 ------- 2 3.1 1.0 23 62
+ 0.912613 1 2 tcp 1040 ------- 2 1.0 3.1 43 77
- 0.913653 1 2 tcp 1040 ------- 2 1.0 3.1 37 66
r 0.914093 3 2 ack 40 ------- 2 3.1 1.0 27 72
+ 0.914093 2 1 ack 40 ------- 2 3.1 1.0 27 72
- 0.914093 2 1 ack 40 ------- 2 3.1 1.0 27 72
r 0.916173 1 2 tcp 1040 ------- 2 1.0 3.1 33 60
+ 0.916173 2 3 tcp 1040 ------- 2 1.0 3.1 33 60
- 0.916173 2 3 tcp 1040 ------- 2 1.0 3.1 33 60
r 0.916467 2 3 tcp 1040 ------- 2 1.0 3.1 30 49
+ 0.916467 3 2 ack 40 ------- 2 3.1 1.0 30 78
- 0.916467 3 2 ack 40 ------- 2 3.1 1.0 30 78
r 0.916773 2 1 ack 40 ------- 2 3.1 1.0 24 65
+ 0.916773 1 2 tcp 1040 ------- 2 1.0 3.1 44 79
- 0.917813 1 2 tcp 1040 ------- 2 1.0 3.1 38 67
r 0.918253 3 2 ack 40 ------- 2 3.1 1.0 28 74
+ 0.918253 2 1 ack 40 ------- 2 3.1 1.0 28 74
- 0.918253 2 1 ack 40 ------- 2 3.1 1.0 28 74
r 0.920333 1 2 tcp 1040 ------- 2 1.0 3.1 34 61
+ 0.920333 2 3 tcp 1040 ------- 2 1.0 3.1 34 61
- 0.920333 2 3 tcp 1040 ------- 2 1.0 3.1 34 61
r 0.920627 2 3 tcp 1040 ------- 2 1.0 3.1 31 57
+ 0.920627 3 2 ack 40 ------- 2 3.1 1.0 31 80
- 0.920627 3 2 ack 40 ------- 2 3.1 1.0 31 80
r 0.920933 2 1 ack 40 ------- 2 3.1 1.0 25 68
+ 0.920933 1 2 tcp 1040 ------- 2 1.0 3.1 45 81
- 0.921973 1 2 tcp 1040 ------- 2 1.0 3.1 39 69
r 0.922413 3 2 ack 40 ------- 2 3.1 1.0 29 76
+ 0.922413 2 1 ack 40 ------- 2 3.1 1.0 29 76
- 0.922413 2 1 ack 40 ------- 2 3.1 1.0 29 76
r 0.924493 1 2 tcp 1040 ------- 2 1.0 3.1 35 63
+ 0.924493 2 3 tcp 1040 ------- 2 1.0 3.1 35 63
- 0.924493 2 3 tcp 1040 ------- 2 1.0 3.1 35 63
r 0.924787 2 3 tcp 1040 ------- 2 1.0 3.1 32 58
+ 0.924787 3 2 ack 40 ------- 2 3.1 1.0 32 82
- 0.924787 3 2 ack 40 ------- 2 3.1 1.0 32 82
r 0.925093 2 1 ack 40 ------- 2 3.1 1.0 26 70
+ 0.925093 1 2 tcp 1040 ------- 2 1.0 3.1 46 83
- 0.926133 1 2 tcp 1040 ------- 2 1.0 3.1 40 71
r 0.926573 3 2 ack 40 ------- 2 3.1 1.0 30 78
+ 0.926573 2 1 ack 40 ------- 2 3.1 1.0 30 78
- 0.926573 2 1 ack 40 ------- 2 3.1 1.0 30 78
r 0.928653 1 2 tcp 1040 ------- 2 1.0 3.1 36 64
+ 0.928653 2 3 tcp 1040 ------- 2 1.0 3.1 36 64
- 0.928653 2 3 tcp 1040 ------- 2 1.0 3.1 36 64
r 0.928947 2 3 tcp 1040 ------- 2 1.0 3.1 33 60
+ 0.928947 3 2 ack 40 ------- 2 3.1 1.0 33 84
- 0.928947 3 2 ack 40 ------- 2 3.1 1.0 33 84
r 0.929253 2 1 ack 40 ------- 2 3.1 1.0 27 72
+ 0.929253 1 2 tcp 1040 ------- 2 1.0 3.1 47 85
- 0.930293 1 2 tcp 1040 ------- 2 1.0 3.1 41 73
r 0.930733 3 2 ack 40 ------- 2 3.1 1.0 31 80
+ 0.930733 2 1 ack 40 ------- 2 3.1 1.0 31 80
- 0.930733 2 1 ack 40 ------- 2 3.1 1.0 31 80
r 0.932813 1 2 tcp 1040 ------- 2 1.0 3.1 37 66
+ 0.932813 2 3 tcp 1040 ------- 2 1.0 3.1 37 66
- 0.932813 2 3 tcp 1040 ------- 2 1.0 3.1 37 66
r 0.933107 2 3 tcp 1040 ------- 2 1.0 3.1 34 61
+ 0.933107 3 2 ack 40 ------- 2 3.1 1.0 34 86
- 0.933107 3 2 ack 40 ------- 2 3.1 1.0 34 86
r 0.933413 2 1 ack 40 ------- 2 3.1 1.0 28 74
+ 0.933413 1 2 tcp 1040 ------- 2 1.0 3.1 48 87
- 0.934453 1 2 tcp 1040 ------- 2 1.0 3.1 42 75
r 0.934893 3 2 ack 40 ------- 2 3.1 1.0 32 82
+ 0.934893 2 1 ack 40 ------- 2 3.1 1.0 32 82
- 0.934893 2 1 ack 40 ------- 2 3.1 1.0 32 82
r 0.936973 1 2 tcp 1040 ------- 2 1.0 3.1 38 67
+ 0.936973 2 3 tcp 1040 ------- 2 1.0 3.1 38 67
- 0.936973 2 3 tcp 1040 ------- 2 1.0 3.1 38 67
r 0.937267 2 3 tcp 1040 ------- 2 1.0 3.1 35 63
+ 0.937267 3 2 ack 40 ------- 2 3.1 1.0 35 88
- 0.937267 3 2 ack 40 ------- 2 3.1 1.0 35 88
r 0.937573 2 1 ack 40 ------- 2 3.1 1.0 29 76
+ 0.937573 1 2 tcp 1040 ------- 2 1.0 3.1 49 89
- 0.938613 1 2 tcp 1040 ------- 2 1.0 3.1 43 77
r 0.939053 3 2 ack 40 ------- 2 3.1 1.0 33 84
+ 0.939053 2 1 ack 40 ------- 2 3.1 1.0 33 84
- 0.939053 2 1 ack 40 ------- 2 3.1 1.0 33 84
r 0.941133 1 2 tcp 1040 ------- 2 1.0 3.1 39 69
+ 0.941133 2 3 tcp 1040 ------- 2 1.0 3.1 39 69
- 0.941133 2 3 tcp 1040 ------- 2 1.0 3.1 39 69
r 0.941427 2 3 tcp 1040 ------- 2 1.0 3.1 36 64
+ 0.941427 3 2 ack 40 ------- 2 3.1 1.0 36 90
- 0.941427 3 2 ack 40 ------- 2 3.1 1.0 36 90
r 0.941733 2 1 ack 40 ------- 2 3.1 1.0 30 78
+ 0.941733 1 2 tcp 1040 ------- 2 1.0 3.1 50 91
- 0.942773 1 2 tcp 1040 ------- 2 1.0 3.1 44 79
r 0.943213 3 2 ack 40 ------- 2 3.1 1.0 34 86
+ 0.943213 2 1 ack 40 ------- 2 3.1 1.0 34 86
- 0.943213 2 1 ack 40 ------- 2 3.1 1.0 34 86
r 0.945293 1 2 tcp 1040 ------- 2 1.0 3.1 40 71
+ 0.945293 2 3 tcp 1040 ------- 2 1.0 3.1 40 71
- 0.945293 2 3 tcp 1040 ------- 2 1.0 3.1 40 71
r 0.945587 2 3 tcp 1040 ------- 2 1.0 3.1 37 66
+ 0.945587 3 2 ack 40 ------- 2 3.1 1.0 37 92
- 0.945587 3 2 ack 40 ------- 2 3.1 1.0 37 92
r 0.945893 2 1 ack 40 ------- 2 3.1 1.0 31 80
+ 0.945893 1 2 tcp 1040 ------- 2 1.0 3.1 51 93
- 0.946933 1 2 tcp 1040 ------- 2 1.0 3.1 45 81
r 0.947373 3 2 ack 40 ------- 2 3.1 1.0 35 88
+ 0.947373 2 1 ack 40 ------- 2 3.1 1.0 35 88
- 0.947373 2 1 ack 40 ------- 2 3.1 1.0 35 88
r 0.949453 1 2 tcp 1040 ------- 2 1.0 3.1 41 73
+ 0.949453 2 3 tcp 1040 ------- 2 1.0 3.1 41 73
- 0.949453 2 3 tcp 1040 ------- 2 1.0 3.1 41 73
r 0.949747 2 3 tcp 1040 ------- 2 1.0 3.1 38 67
+ 0.949747 3 2 ack 40 ------- 2 3.1 1.0 38 94
- 0.949747 3 2 ack 40 ------- 2 3.1 1.0 38 94
r 0.950053 2 1 ack 40 ------- 2 3.1 1.0 32 82
+ 0.950053 1 2 tcp 1040 ------- 2 1.0 3.1 52 95
- 0.951093 1 2 tcp 1040 ------- 2 1.0 3.1 46 83
r 0.951533 3 2 ack 40 ------- 2 3.1 1.0 36 90
+ 0.951533 2 1 ack 40 ------- 2 3.1 1.0 36 90
- 0.951533 2 1 ack 40 ------- 2 3.1 1.0 36 90
r 0.953613 1 2 tcp 1040 ------- 2 1.0 3.1 42 75
+ 0.953613 2 3 tcp 1040 ------- 2 1.0 3.1 42 75
- 0.953613 2 3 tcp 1040 ------- 2 1.0 3.1 42 75
r 0.953907 2 3 tcp 1040 ------- 2 1.0 3.1 39 69
+ 0.953907 3 2 ack 40 ------- 2 3.1 1.0 39 96
- 0.953907 3 2 ack 40 ------- 2 3.1 1.0 39 96
r 0.954213 2 1 ack 40 ------- 2 3.1 1.0 33 84
+ 0.954213 1 2 tcp 1040 ------- 2 1.0 3.1 53 97
- 0.955253 1 2 tcp 1040 ------- 2 1.0 3.1 47 85
r 0.955693 3 2 ack 40 ------- 2 3.1 1.0 37 92
+ 0.955693 2 1 ack 40 ------- 2 3.1 1.0 37 92
- 0.955693 2 1 ack 40 ------- 2 3.1 1.0 37 92
r 0.957773 1 2 tcp 1040 ------- 2 1.0 3.1 43 77
+ 0.957773 2 3 tcp 1040 ------- 2 1.0 3.1 43 77
- 0.957773 2 3 tcp 1040 ------- 2 1.0 3.1 43 77
r 0.958067 2 3 tcp 1040 ------- 2 1.0 3.1 40 71
+ 0.958067 3 2 ack 40 ------- 2 3.1 1.0 40 98
- 0.958067 3 2 ack 40 ------- 2 3.1 1.0 40 98
r 0.958373 2 1 ack 40 ------- 2 3.1 1.0 34 86
+ 0.958373 1 2 tcp 1040 ------- 2 1.0 3.1 54 99
- 0.959413 1 2 tcp 1040 ------- 2 1.0 3.1 48 87
r 0.959853 3 2 ack 40 ------- 2 3.1 1.0 38 94
+ 0.959853 2 1 ack 40 ------- 2 3.1 1.0 38 94
- 0.959853 2 1 ack 40 ------- 2 3.1 1.0 38 94
r 0.961933 1 2 tcp 1040 ------- 2 1.0 3.1 44 79
+ 0.961933 2 3 tcp 1040 ------- 2 1.0 3.1 44 79
- 0.961933 2 3 tcp 1040 ------- 2 1.0 3.1 44 79
r 0.962227 2 3 tcp 1040 ------- 2 1.0 3.1 41 73
+ 0.962227 3 2 ack 40 ------- 2 3.1 1.0 41 100
- 0.962227 3 2 ack 40 ------- 2 3.1 1.0 41 100
r 0.962533 2 1 ack 40 ------- 2 3.1 1.0 35 88
+ 0.962533 1 2 tcp 1040 ------- 2 1.0 3.1 55 101
- 0.963573 1 2 tcp 1040 ------- 2 1.0 3.1 49 89
r 0.964013 3 2 ack 40 ------- 2 3.1 1.0 39 96
+ 0.964013 2 1 ack 40 ------- 2 3.1 1.0 39 96
- 0.964013 2 1 ack 40 ------- 2 3.1 1.0 39 96
r 0.966093 1 2 tcp 1040 ------- 2 1.0 3.1 45 81
+ 0.966093 2 3 tcp 1040 ------- 2 1.0 3.1 45 81
- 0.966093 2 3 tcp 1040 ------- 2 1.0 3.1 45 81
r 0.966387 2 3 tcp 1040 ------- 2 1.0 3.1 42 75
+ 0.966387 3 2 ack 40 ------- 2 3.1 1.0 42 102
- 0.966387 3 2 ack 40 ------- 2 3.1 1.0 42 102
r 0.966693 2 1 ack 40 ------- 2 3.1 1.0 36 90
+ 0.966693 1 2 tcp 1040 ------- 2 1.0 3.1 56 103
- 0.967733 1 2 tcp 1040 ------- 2 1.0 3.1 50 91
r 0.968173 3 2 ack 40 ------- 2 3.1 1.0 40 98
+ 0.968173 2 1 ack 40 ------- 2 3.1 1.0 40 98
- 0.968173 2 1 ack 40 ------- 2 3.1 1.0 40 98
r 0.970253 1 2 tcp 1040 ------- 2 1.0 3.1 46 83
+ 0.970253 2 3 tcp 1040 ------- 2 1.0 3.1 46 83
- 0.970253 2 3 tcp 1040 ------- 2 1.0 3.1 46 83
r 0.970547 2 3 tcp 1040 ------- 2 1.0 3.1 43 77
+ 0.970547 3 2 ack 40 ------- 2 3.1 1.0 43 104
- 0.970547 3 2 ack 40 ------- 2 3.1 1.0 43 104
r 0.970853 2 1 ack 40 ------- 2 3.1 1.0 37 92
+ 0.970853 1 2 tcp 1040 ------- 2 1.0 3.1 57 105
- 0.971893 1 2 tcp 1040 ------- 2 1.0 3.1 51 93
r 0.972333 3 2 ack 40 ------- 2 3.1 1.0 41 100
+ 0.972333 2 1 ack 40 ------- 2 3.1 1.0 41 100
- 0.972333 2 1 ack 40 ------- 2 3.1 1.0 41 100
r 0.974413 1 2 tcp 1040 ------- 2 1.0 3.1 47 85
+ 0.974413 2 3 tcp 1040 ------- 2 1.0 3.1 47 85
- 0.974413 2 3 tcp 1040 ------- 2 1.0 3.1 47 85
r 0.974707 2 3 tcp 1040 ------- 2 1.0 3.1 44 79
+ 0.974707 3 2 ack 40 ------- 2 3.1 1.0 44 106
- 0.974707 3 2 ack 40 ------- 2 3.1 1.0 44 106
r 0.975013 2 1 ack 40 ------- 2 3.1 1.0 38 94
+ 0.975013 1 2 tcp 1040 ------- 2 1.0 3.1 58 107
- 0.976053 1 2 tcp 1040 ------- 2 1.0 3.1 52 95
r 0.976493 3 2 ack 40 ------- 2 3.1 1.0 42 102
+ 0.976493 2 1 ack 40 ------- 2 3.1 1.0 42 102
- 0.976493 2 1 ack 40 ------- 2 3.1 1.0 42 102
r 0.978573 1 2 tcp 1040 ------- 2 1.0 3.1 48 87
+ 0.978573 2 3 tcp 1040 ------- 2 1.0 3.1 48 87
- 0.978573 2 3 tcp 1040 ------- 2 1.0 3.1 48 87
r 0.978867 2 3 tcp 1040 ------- 2 1.0 3.1 45 81
+ 0.978867 3 2 ack 40 ------- 2 3.1 1.0 45 108
- 0.978867 3 2 ack 40 ------- 2 3.1 1.0 45 108
r 0.979173 2 1 ack 40 ------- 2 3.1 1.0 39 96
+ 0.979173 1 2 tcp 1040 ------- 2 1.0 3.1 59 109
- 0.980213 1 2 tcp 1040 ------- 2 1.0 3.1 53 97
r 0.980653 3 2 ack 40 ------- 2 3.1 1.0 43 104
+ 0.980653 2 1 ack 40 ------- 2 3.1 1.0 43 104
- 0.980653 2 1 ack 40 ------- 2 3.1 1.0 43 104
r 0.982733 1 2 tcp 1040 ------- 2 1.0 3.1 49 89
+ 0.982733 2 3 tcp 1040 ------- 2 1.0 3.1 49 89
- 0.982733 2 3 tcp 1040 ------- 2 1.0 3.1 49 89
r 0.983027 2 3 tcp 1040 ------- 2 1.0 3.1 46 83
+ 0.983027 3 2 ack 40 ------- 2 3.1 1.0 46 110
- 0.983027 3 2 ack 40 ------- 2 3.1 1.0 46 110
r 0.983333 2 1 ack 40 ------- 2 3.1 1.0 40 98
+ 0.983333 1 2 tcp 1040 ------- 2 1.0 3.1 60 111
- 0.984373 1 2 tcp 1040 ------- 2 1.0 3.1 54 99
r 0.984813 3 2 ack 40 ------- 2 3.1 1.0 44 106
+ 0.984813 2 1 ack 40 ------- 2 3.1 1.0 44 106
- 0.984813 2 1 ack 40 ------- 2 3.1 1.0 44 106
r 0.986893 1 2 tcp 1040 ------- 2 1.0 3.1 50 91
+ 0.986893 2 3 tcp 1040 ------- 2 1.0 3.1 50 91
- 0.986893 2 3 tcp 1040 ------- 2 1.0 3.1 50 91
r 0.987187 2 3 tcp 1040 ------- 2 1.0 3.1 47 85
+ 0.987187 3 2 ack 40 ------- 2 3.1 1.0 47 112
- 0.987187 3 2 ack 40 ------- 2 3.1 1.0 47 112
r 0.987493 2 1 ack 40 ------- 2 3.1 1.0 41 100
+ 0.987493 1 2 tcp 1040 ------- 2 1.0 3.1 61 113
- 0.988533 1 2 tcp 1040 ------- 2 1.0 3.1 55 101
r 0.988973 3 2 ack 40 ------- 2 3.1 1.0 45 108
+ 0.988973 2 1 ack 40 ------- 2 3.1 1.0 45 108
- 0.988973 2 1 ack 40 ------- 2 3.1 1.0 45 108
r 0.991053 1 2 tcp 1040 ------- 2 1.0 3.1 51 93
+ 0.991053 2 3 tcp 1040 ------- 2 1.0 3.1 51 93
- 0.991053 2 3 tcp 1040 ------- 2 1.0 3.1 51 93
r 0.991347 2 3 tcp 1040 ------- 2 1.0 3.1 48 87
+ 0.991347 3 2 ack 40 ------- 2 3.1 1.0 48 114
- 0.991347 3 2 ack 40 ------- 2 3.1 1.0 48 114
r 0.991653 2 1 ack 40 ------- 2 3.1 1.0 42 102
+ 0.991653 1 2 tcp 1040 ------- 2 1.0 3.1 62 115
- 0.992693 1 2 tcp 1040 ------- 2 1.0 3.1 56 103
r 0.993133 3 2 ack 40 ------- 2 3.1 1.0 46 110
+ 0.993133 2 1 ack 40 ------- 2 3.1 1.0 46 110
- 0.993133 2 1 ack 40 ------- 2 3.1 1.0 46 110
r 0.995213 1 2 tcp 1040 ------- 2 1.0 3.1 52 95
+ 0.995213 2 3 tcp 1040 ------- 2 1.0 3.1 52 95
- 0.995213 2 3 tcp 1040 ------- 2 1.0 3.1 52 95
r 0.995507 2 3 tcp 1040 ------- 2 1.0 3.1 49 89
+ 0.995507 3 2 ack 40 ------- 2 3.1 1.0 49 116
- 0.995507 3 2 ack 40 ------- 2 3.1 1.0 49 116
r 0.995813 2 1 ack 40 ------- 2 3.1 1.0 43 104
+ 0.995813 1 2 tcp 1040 ------- 2 1.0 3.1 63 117
- 0.996853 1 2 tcp 1040 ------- 2 1.0 3.1 57 105
r 0.997293 3 2 ack 40 ------- 2 3.1 1.0 47 112