+ 0.7 0 1 cbr 512 ------- 2 0.0 2.0 0 0
- 0.7 0 1 cbr 512 ------- 2 0.0 2.0 0 0
+ 0.705 0 1 cbr 512 ------- 2 0.0 2.0 1 1
- 0.708192 0 1 cbr 512 ------- 2 0.0 2.0 1 1
+ 0.71 0 1 cbr 512 ------- 2 0.0 2.0 2 2
+ 0.715 0 1 cbr 512 ------- 2 0.0 2.0 3 3
- 0.716384 0 1 cbr 512 ------- 2 0.0 2.0 2 2
+ 0.72 0 1 cbr 512 ------- 2 0.0 2.0 4 4
- 0.724576 0 1 cbr 512 ------- 2 0.0 2.0 3 3
+ 0.725 0 1 cbr 512 ------- 2 0.0 2.0 5 5
+ 0.73 0 1 cbr 512 ------- 2 0.0 2.0 6 6
- 0.732768 0 1 cbr 512 ------- 2 0.0 2.0 4 4
+ 0.735 0 1 cbr 512 ------- 2 0.0 2.0 7 7
r 0.738192 0 1 cbr 512 ------- 2 0.0 2.0 0 0
+ 0.738192 1 2 cbr 512 ------- 2 0.0 2.0 0 0
- 0.738192 1 2 cbr 512 ------- 2 0.0 2.0 0 0
+ 0.74 0 1 cbr 512 ------- 2 0.0 2.0 8 8
- 0.74096 0 1 cbr 512 ------- 2 0.0 2.0 5 5
+ 0.745 0 1 cbr 512 ------- 2 0.0 2.0 9 9
r 0.746384 0 1 cbr 512 ------- 2 0.0 2.0 1 1
+ 0.746384 1 2 cbr 512 ------- 2 0.0 2.0 1 1
- 0.746384 1 2 cbr 512 ------- 2 0.0 2.0 1 1
- 0.749152 0 1 cbr 512 ------- 2 0.0 2.0 6 6
+ 0.75 0 1 cbr 512 ------- 2 0.0 2.0 10 10
r 0.752288 1 2 cbr 512 ------- 2 0.0 2.0 0 0
r 0.754576 0 1 cbr 512 ------- 2 0.0 2.0 2 2
+ 0.754576 1 2 cbr 512 ------- 2 0.0 2.0 2 2
- 0.754576 1 2 cbr 512 ------- 2 0.0 2.0 2 2
+ 0.755 0 1 cbr 512 ------- 2 0.0 2.0 11 11
- 0.757344 0 1 cbr 512 ------- 2 0.0 2.0 7 7
+ 0.76 0 1 cbr 512 ------- 2 0.0 2.0 12 12
r 0.76048 1 2 cbr 512 ------- 2 0.0 2.0 1 1
r 0.762768 0 1 cbr 512 ------- 2 0.0 2.0 3 3
+ 0.762768 1 2 cbr 512 ------- 2 0.0 2.0 3 3
- 0.762768 1 2 cbr 512 ------- 2 0.0 2.0 3 3
+ 0.765 0 1 cbr 512 ------- 2 0.0 2.0 13 13
- 0.765536 0 1 cbr 512 ------- 2 0.0 2.0 8 8
r 0.768672 1 2 cbr 512 ------- 2 0.0 2.0 2 2
+ 0.77 0 1 cbr 512 ------- 2 0.0 2.0 14 14
r 0.77096 0 1 cbr 512 ------- 2 0.0 2.0 4 4
+ 0.77096 1 2 cbr 512 ------- 2 0.0 2.0 4 4
- 0.77096 1 2 cbr 512 ------- 2 0.0 2.0 4 4
- 0.773728 0 1 cbr 512 ------- 2 0.0 2.0 9 9
+ 0.775 0 1 cbr 512 ------- 2 0.0 2.0 15 15
r 0.776864 1 2 cbr 512 ------- 2 0.0 2.0 3 3
r 0.779152 0 1 cbr 512 ------- 2 0.0 2.0 5 5
+ 0.779152 1 2 cbr 512 ------- 2 0.0 2.0 5 5
- 0.779152 1 2 cbr 512 ------- 2 0.0 2.0 5 5
+ 0.78 0 1 cbr 512 ------- 2 0.0 2.0 16 16
- 0.78192 0 1 cbr 512 ------- 2 0.0 2.0 10 10
+ 0.785 0 1 cbr 512 ------- 2 0.0 2.0 17 17
r 0.785056 1 2 cbr 512 ------- 2 0.0 2.0 4 4
r 0.787344 0 1 cbr 512 ------- 2 0.0 2.0 6 6
+ 0.787344 1 2 cbr 512 ------- 2 0.0 2.0 6 6
- 0.787344 1 2 cbr 512 ------- 2 0.0 2.0 6 6
+ 0.79 0 1 cbr 512 ------- 2 0.0 2.0 18 18
- 0.790112 0 1 cbr 512 ------- 2 0.0 2.0 11 11
r 0.793248 1 2 cbr 512 ------- 2 0.0 2.0 5 5
+ 0.795 0 1 cbr 512 ------- 2 0.0 2.0 19 19
r 0.795536 0 1 cbr 512 ------- 2 0.0 2.0 7 7
+ 0.795536 1 2 cbr 512 ------- 2 0.0 2.0 7 7
- 0.795536 1 2 cbr 512 ------- 2 0.0 2.0 7 7
- 0.798304 0 1 cbr 512 ------- 2 0.0 2.0 12 12
+ 0.8 0 1 cbr 512 ------- 2 0.0 2.0 20 20
r 0.80144 1 2 cbr 512 ------- 2 0.0 2.0 6 6
r 0.803728 0 1 cbr 512 ------- 2 0.0 2.0 8 8
+ 0.803728 1 2 cbr 512 ------- 2 0.0 2.0 8 8
- 0.803728 1 2 cbr 512 ------- 2 0.0 2.0 8 8
+ 0.805 0 1 cbr 512 ------- 2 0.0 2.0 21 21
- 0.806496 0 1 cbr 512 ------- 2 0.0 2.0 13 13
r 0.809632 1 2 cbr 512 ------- 2 0.0 2.0 7 7
+ 0.81 0 1 cbr 512 ------- 2 0.0 2.0 22 22
r 0.81192 0 1 cbr 512 ------- 2 0.0 2.0 9 9
+ 0.81192 1 2 cbr 512 ------- 2 0.0 2.0 9 9
- 0.81192 1 2 cbr 512 ------- 2 0.0 2.0 9 9
- 0.814688 0 1 cbr 512 ------- 2 0.0 2.0 14 14
+ 0.815 0 1 cbr 512 ------- 2 0.0 2.0 23 23
r 0.817824 1 2 cbr 512 ------- 2 0.0 2.0 8 8
+ 0.82 0 1 cbr 512 ------- 2 0.0 2.0 24 24
r 0.820112 0 1 cbr 512 ------- 2 0.0 2.0 10 10
+ 0.820112 1 2 cbr 512 ------- 2 0.0 2.0 10 10
- 0.820112 1 2 cbr 512 ------- 2 0.0 2.0 10 10
- 0.82288 0 1 cbr 512 ------- 2 0.0 2.0 15 15
+ 0.825 0 1 cbr 512 ------- 2 0.0 2.0 25 25
r 0.826016 1 2 cbr 512 ------- 2 0.0 2.0 9 9
r 0.828304 0 1 cbr 512 ------- 2 0.0 2.0 11 11
+ 0.828304 1 2 cbr 512 ------- 2 0.0 2.0 11 11
- 0.828304 1 2 cbr 512 ------- 2 0.0 2.0 11 11
+ 0.83 0 1 cbr 512 ------- 2 0.0 2.0 26 26
- 0.831072 0 1 cbr 512 ------- 2 0.0 2.0 16 16
r 0.834208 1 2 cbr 512 ------- 2 0.0 2.0 10 10
+ 0.835 0 1 cbr 512 ------- 2 0.0 2.0 27 27
r 0.836496 0 1 cbr 512 ------- 2 0.0 2.0 12 12
+ 0.836496 1 2 cbr 512 ------- 2 0.0 2.0 12 12
- 0.836496 1 2 cbr 512 ------- 2 0.0 2.0 12 12
- 0.839264 0 1 cbr 512 ------- 2 0.0 2.0 17 17
+ 0.84 0 1 cbr 512 ------- 2 0.0 2.0 28 28
r 0.8424 1 2 cbr 512 ------- 2 0.0 2.0 11 11
r 0.844688 0 1 cbr 512 ------- 2 0.0 2.0 13 13
+ 0.844688 1 2 cbr 512 ------- 2 0.0 2.0 13 13
- 0.844688 1 2 cbr 512 ------- 2 0.0 2.0 13 13
+ 0.845 0 1 cbr 512 ------- 2 0.0 2.0 29 29
- 0.847456 0 1 cbr 512 ------- 2 0.0 2.0 18 18
+ 0.85 0 1 cbr 512 ------- 2 0.0 2.0 30 30
r 0.850592 1 2 cbr 512 ------- 2 0.0 2.0 12 12
r 0.85288 0 1 cbr 512 ------- 2 0.0 2.0 14 14
+ 0.85288 1 2 cbr 512 ------- 2 0.0 2.0 14 14
- 0.85288 1 2 cbr 512 ------- 2 0.0 2.0 14 14
+ 0.855 0 1 cbr 512 ------- 2 0.0 2.0 31 31
- 0.855648 0 1 cbr 512 ------- 2 0.0 2.0 19 19
r 0.858784 1 2 cbr 512 ------- 2 0.0 2.0 13 13
+ 0.86 0 1 cbr 512 ------- 2 0.0 2.0 32 32
r 0.861072 0 1 cbr 512 ------- 2 0.0 2.0 15 15
+ 0.861072 1 2 cbr 512 ------- 2 0.0 2.0 15 15
- 0.861072 1 2 cbr 512 ------- 2 0.0 2.0 15 15
- 0.86384 0 1 cbr 512 ------- 2 0.0 2.0 20 20
+ 0.865 0 1 cbr 512 ------- 2 0.0 2.0 33 33
r 0.866976 1 2 cbr 512 ------- 2 0.0 2.0 14 14
r 0.869264 0 1 cbr 512 ------- 2 0.0 2.0 16 16
+ 0.869264 1 2 cbr 512 ------- 2 0.0 2.0 16 16
- 0.869264 1 2 cbr 512 ------- 2 0.0 2.0 16 16
+ 0.87 0 1 cbr 512 ------- 2 0.0 2.0 34 34
- 0.872032 0 1 cbr 512 ------- 2 0.0 2.0 21 21
+ 0.875 0 1 cbr 512 ------- 2 0.0 2.0 35 35
r 0.875168 1 2 cbr 512 ------- 2 0.0 2.0 15 15
r 0.877456 0 1 cbr 512 ------- 2 0.0 2.0 17 17
+ 0.877456 1 2 cbr 512 ------- 2 0.0 2.0 17 17
- 0.877456 1 2 cbr 512 ------- 2 0.0 2.0 17 17
+ 0.88 0 1 cbr 512 ------- 2 0.0 2.0 36 36
d 0.88 0 1 cbr 512 ------- 2 0.0 2.0 36 36
- 0.880224 0 1 cbr 512 ------- 2 0.0 2.0 22 22
r 0.88336 1 2 cbr 512 ------- 2 0.0 2.0 16 16
+ 0.885 0 1 cbr 512 ------- 2 0.0 2.0 37 37
r 0.885648 0 1 cbr 512 ------- 2 0.0 2.0 18 18
+ 0.885648 1 2 cbr 512 ------- 2 0.0 2.0 18 18
- 0.885648 1 2 cbr 512 ------- 2 0.0 2.0 18 18
- 0.888416 0 1 cbr 512 ------- 2 0.0 2.0 23 23
+ 0.89 0 1 cbr 512 ------- 2 0.0 2.0 38 38
r 0.891552 1 2 cbr 512 ------- 2 0.0 2.0 17 17
r 0.89384 0 1 cbr 512 ------- 2 0.0 2.0 19 19
+ 0.89384 1 2 cbr 512 ------- 2 0.0 2.0 19 19
- 0.89384 1 2 cbr 512 ------- 2 0.0 2.0 19 19
+ 0.895 0 1 cbr 512 ------- 2 0.0 2.0 39 39
d 0.895 0 1 cbr 512 ------- 2 0.0 2.0 39 39
- 0.896608 0 1 cbr 512 ------- 2 0.0 2.0 24 24
r 0.899744 1 2 cbr 512 ------- 2 0.0 2.0 18 18
+ 0.9 0 1 cbr 512 ------- 2 0.0 2.0 40 40
r 0.902032 0 1 cbr 512 ------- 2 0.0 2.0 20 20
+ 0.902032 1 2 cbr 512 ------- 2 0.0 2.0 20 20
- 0.902032 1 2 cbr 512 ------- 2 0.0 2.0 20 20
- 0.9048 0 1 cbr 512 ------- 2 0.0 2.0 25 25
+ 0.905 0 1 cbr 512 ------- 2 0.0 2.0 41 41
r 0.907936 1 2 cbr 512 ------- 2 0.0 2.0 19 19
+ 0.91 0 1 cbr 512 ------- 2 0.0 2.0 42 42
d 0.91 0 1 cbr 512 ------- 2 0.0 2.0 42 42
r 0.910224 0 1 cbr 512 ------- 2 0.0 2.0 21 21
+ 0.910224 1 2 cbr 512 ------- 2 0.0 2.0 21 21
- 0.910224 1 2 cbr 512 ------- 2 0.0 2.0 21 21
- 0.912992 0 1 cbr 512 ------- 2 0.0 2.0 26 26
+ 0.915 0 1 cbr 512 ------- 2 0.0 2.0 43 43
r 0.916128 1 2 cbr 512 ------- 2 0.0 2.0 20 20
r 0.918416 0 1 cbr 512 ------- 2 0.0 2.0 22 22
+ 0.918416 1 2 cbr 512 ------- 2 0.0 2.0 22 22
- 0.918416 1 2 cbr 512 ------- 2 0.0 2.0 22 22
+ 0.92 0 1 cbr 512 ------- 2 0.0 2.0 44 44
d 0.92 0 1 cbr 512 ------- 2 0.0 2.0 44 44
- 0.921184 0 1 cbr 512 ------- 2 0.0 2.0 27 27
r 0.92432 1 2 cbr 512 ------- 2 0.0 2.0 21 21
+ 0.925 0 1 cbr 512 ------- 2 0.0 2.0 45 45
r 0.926608 0 1 cbr 512 ------- 2 0.0 2.0 23 23
+ 0.926608 1 2 cbr 512 ------- 2 0.0 2.0 23 23
- 0.926608 1 2 cbr 512 ------- 2 0.0 2.0 23 23
- 0.929376 0 1 cbr 512 ------- 2 0.0 2.0 28 28
+ 0.93 0 1 cbr 512 ------- 2 0.0 2.0 46 46
r 0.932512 1 2 cbr 512 ------- 2 0.0 2.0 22 22
r 0.9348 0 1 cbr 512 ------- 2 0.0 2.0 24 24
+ 0.9348 1 2 cbr 512 ------- 2 0.0 2.0 24 24
- 0.9348 1 2 cbr 512 ------- 2 0.0 2.0 24 24
+ 0.935 0 1 cbr 512 ------- 2 0.0 2.0 47 47
d 0.935 0 1 cbr 512 ------- 2 0.0 2.0 47 47
- 0.937568 0 1 cbr 512 ------- 2 0.0 2.0 29 29
+ 0.94 0 1 cbr 512 ------- 2 0.0 2.0 48 48
r 0.940704 1 2 cbr 512 ------- 2 0.0 2.0 23 23
r 0.942992 0 1 cbr 512 ------- 2 0.0 2.0 25 25
+ 0.942992 1 2 cbr 512 ------- 2 0.0 2.0 25 25
- 0.942992 1 2 cbr 512 ------- 2 0.0 2.0 25 25
+ 0.945 0 1 cbr 512 ------- 2 0.0 2.0 49 49
d 0.945 0 1 cbr 512 ------- 2 0.0 2.0 49 49
- 0.94576 0 1 cbr 512 ------- 2 0.0 2.0 30 30
r 0.948896 1 2 cbr 512 ------- 2 0.0 2.0 24 24
+ 0.95 0 1 cbr 512 ------- 2 0.0 2.0 50 50
r 0.951184 0 1 cbr 512 ------- 2 0.0 2.0 26 26
+ 0.951184 1 2 cbr 512 ------- 2 0.0 2.0 26 26
- 0.951184 1 2 cbr 512 ------- 2 0.0 2.0 26 26
- 0.953952 0 1 cbr 512 ------- 2 0.0 2.0 31 31
+ 0.955 0 1 cbr 512 ------- 2 0.0 2.0 51 51
r 0.957088 1 2 cbr 512 ------- 2 0.0 2.0 25 25
r 0.959376 0 1 cbr 512 ------- 2 0.0 2.0 27 27
+ 0.959376 1 2 cbr 512 ------- 2 0.0 2.0 27 27
- 0.959376 1 2 cbr 512 ------- 2 0.0 2.0 27 27
+ 0.96 0 1 cbr 512 ------- 2 0.0 2.0 52 52
d 0.96 0 1 cbr 512 ------- 2 0.0 2.0 52 52
- 0.962144 0 1 cbr 512 ------- 2 0.0 2.0 32 32
+ 0.965 0 1 cbr 512 ------- 2 0.0 2.0 53 53
r 0.96528 1 2 cbr 512 ------- 2 0.0 2.0 26 26
r 0.967568 0 1 cbr 512 ------- 2 0.0 2.0 28 28
+ 0.967568 1 2 cbr 512 ------- 2 0.0 2.0 28 28
- 0.967568 1 2 cbr 512 ------- 2 0.0 2.0 28 28
+ 0.97 0 1 cbr 512 ------- 2 0.0 2.0 54 54
d 0.97 0 1 cbr 512 ------- 2 0.0 2.0 54 54
- 0.970336 0 1 cbr 512 ------- 2 0.0 2.0 33 33
r 0.973472 1 2 cbr 512 ------- 2 0.0 2.0 27 27
+ 0.975 0 1 cbr 512 ------- 2 0.0 2.0 55 55
r 0.97576 0 1 cbr 512 ------- 2 0.0 2.0 29 29
+ 0.97576 1 2 cbr 512 ------- 2 0.0 2.0 29 29
- 0.97576 1 2 cbr 512 ------- 2 0.0 2.0 29 29
- 0.978528 0 1 cbr 512 ------- 2 0.0 2.0 34 34
+ 0.98 0 1 cbr 512 ------- 2 0.0 2.0 56 56
r 0.981664 1 2 cbr 512 ------- 2 0.0 2.0 28 28
r 0.983952 0 1 cbr 512 ------- 2 0.0 2.0 30 30
+ 0.983952 1 2 cbr 512 ------- 2 0.0 2.0 30 30
- 0.983952 1 2 cbr 512 ------- 2 0.0 2.0 30 30
+ 0.985 0 1 cbr 512 ------- 2 0.0 2.0 57 57
d 0.985 0 1 cbr 512 ------- 2 0.0 2.0 57 57
- 0.98672 0 1 cbr 512 ------- 2 0.0 2.0 35 35
r 0.989856 1 2 cbr 512 ------- 2 0.0 2.0 29 29
+ 0.99 0 1 cbr 512 ------- 2 0.0 2.0 58 58
r 0.992144 0 1 cbr 512 ------- 2 0.0 2.0 31 31
+ 0.992144 1 2 cbr 512 ------- 2 0.0 2.0 31 31
- 0.992144 1 2 cbr 512 ------- 2 0.0 2.0 31 31
- 0.994912 0 1 cbr 512 ------- 2 0.0 2.0 37 37
+ 0.995 0 1 cbr 512 ------- 2 0.0 2.0 59 59
r 0.998048 1 2 cbr 512 ------- 2 0.0 2.0 30 30
+ 1 0 1 cbr 512 ------- 2 0.0 2.0 60 60
d 1 0 1 cbr 512 ------- 2 0.0 2.0 60 60
r 1.000336 0 1 cbr 512 ------- 2 0.0 2.0 32 32
+ 1.000336 1 2 cbr 512 ------- 2 0.0 2.0 32 32
- 1.000336 1 2 cbr 512 ------- 2 0.0 2.0 32 32
- 1.003104 0 1 cbr 512 ------- 2 0.0 2.0 38 38
+ 1.005 0 1 cbr 512 ------- 2 0.0 2.0 61 61
r 1.00624 1 2 cbr 512 ------- 2 0.0 2.0 31 31
r 1.008528 0 1 cbr 512 ------- 2 0.0 2.0 33 33
+ 1.008528 1 2 cbr 512 ------- 2 0.0 2.0 33 33
- 1.008528 1 2 cbr 512 ------- 2 0.0 2.0 33 33
+ 1.01 0 1 cbr 512 ------- 2 0.0 2.0 62 62
d 1.01 0 1 cbr 512 ------- 2 0.0 2.0 62 62
- 1.011296 0 1 cbr 512 ------- 2 0.0 2.0 40 40
r 1.014432 1 2 cbr 512 ------- 2 0.0 2.0 32 32
+ 1.015 0 1 cbr 512 ------- 2 0.0 2.0 63 63
r 1.01672 0 1 cbr 512 ------- 2 0.0 2.0 34 34
+ 1.01672 1 2 cbr 512 ------- 2 0.0 2.0 34 34
- 1.01672 1 2 cbr 512 ------- 2 0.0 2.0 34 34
- 1.019488 0 1 cbr 512 ------- 2 0.0 2.0 41 41
+ 1.02 0 1 cbr 512 ------- 2 0.0 2.0 64 64
r 1.022624 1 2 cbr 512 ------- 2 0.0 2.0 33 33
r 1.024912 0 1 cbr 512 ------- 2 0.0 2.0 35 35
+ 1.024912 1 2 cbr 512 ------- 2 0.0 2.0 35 35
- 1.024912 1 2 cbr 512 ------- 2 0.0 2.0 35 35
+ 1.025 0 1 cbr 512 ------- 2 0.0 2.0 65 65
d 1.025 0 1 cbr 512 ------- 2 0.0 2.0 65 65
- 1.02768 0 1 cbr 512 ------- 2 0.0 2.0 43 43
+ 1.03 0 1 cbr 512 ------- 2 0.0 2.0 66 66
r 1.030816 1 2 cbr 512 ------- 2 0.0 2.0 34 34
r 1.033104 0 1 cbr 512 ------- 2 0.0 2.0 37 37
+ 1.033104 1 2 cbr 512 ------- 2 0.0 2.0 37 37
- 1.033104 1 2 cbr 512 ------- 2 0.0 2.0 37 37
+ 1.035 0 1 cbr 512 ------- 2 0.0 2.0 67 67
d 1.035 0 1 cbr 512 ------- 2 0.0 2.0 67 67
- 1.035872 0 1 cbr 512 ------- 2 0.0 2.0 45 45
r 1.039008 1 2 cbr 512 ------- 2 0.0 2.0 35 35
+ 1.04 0 1 cbr 512 ------- 2 0.0 2.0 68 68
r 1.041296 0 1 cbr 512 ------- 2 0.0 2.0 38 38
+ 1.041296 1 2 cbr 512 ------- 2 0.0 2.0 38 38
- 1.041296 1 2 cbr 512 ------- 2 0.0 2.0 38 38
- 1.044064 0 1 cbr 512 ------- 2 0.0 2.0 46 46
+ 1.045 0 1 cbr 512 ------- 2 0.0 2.0 69 69
r 1.0472 1 2 cbr 512 ------- 2 0.0 2.0 37 37
r 1.049488 0 1 cbr 512 ------- 2 0.0 2.0 40 40
+ 1.049488 1 2 cbr 512 ------- 2 0.0 2.0 40 40
- 1.049488 1 2 cbr 512 ------- 2 0.0 2.0 40 40
+ 1.05 0 1 cbr 512 ------- 2 0.0 2.0 70 70
d 1.05 0 1 cbr 512 ------- 2 0.0 2.0 70 70
- 1.052256 0 1 cbr 512 ------- 2 0.0 2.0 48 48
+ 1.055 0 1 cbr 512 ------- 2 0.0 2.0 71 71
r 1.055392 1 2 cbr 512 ------- 2 0.0 2.0 38 38
r 1.05768 0 1 cbr 512 ------- 2 0.0 2.0 41 41
+ 1.05768 1 2 cbr 512 ------- 2 0.0 2.0 41 41
- 1.05768 1 2 cbr 512 ------- 2 0.0 2.0 41 41
+ 1.06 0 1 cbr 512 ------- 2 0.0 2.0 72 72
d 1.06 0 1 cbr 512 ------- 2 0.0 2.0 72 72
- 1.060448 0 1 cbr 512 ------- 2 0.0 2.0 50 50
r 1.063584 1 2 cbr 512 ------- 2 0.0 2.0 40 40
+ 1.065 0 1 cbr 512 ------- 2 0.0 2.0 73 73
r 1.065872 0 1 cbr 512 ------- 2 0.0 2.0 43 43
+ 1.065872 1 2 cbr 512 ------- 2 0.0 2.0 43 43
- 1.065872 1 2 cbr 512 ------- 2 0.0 2.0 43 43
- 1.06864 0 1 cbr 512 ------- 2 0.0 2.0 51 51
+ 1.07 0 1 cbr 512 ------- 2 0.0 2.0 74 74
r 1.071776 1 2 cbr 512 ------- 2 0.0 2.0 41 41
r 1.074064 0 1 cbr 512 ------- 2 0.0 2.0 45 45
+ 1.074064 1 2 cbr 512 ------- 2 0.0 2.0 45 45
- 1.074064 1 2 cbr 512 ------- 2 0.0 2.0 45 45
+ 1.075 0 1 cbr 512 ------- 2 0.0 2.0 75 75
d 1.075 0 1 cbr 512 ------- 2 0.0 2.0 75 75
- 1.076832 0 1 cbr 512 ------- 2 0.0 2.0 53 53
r 1.079968 1 2 cbr 512 ------- 2 0.0 2.0 43 43
+ 1.08 0 1 cbr 512 ------- 2 0.0 2.0 76 76
r 1.082256 0 1 cbr 512 ------- 2 0.0 2.0 46 46
+ 1.082256 1 2 cbr 512 ------- 2 0.0 2.0 46 46
- 1.082256 1 2 cbr 512 ------- 2 0.0 2.0 46 46
+ 1.085 0 1 cbr 512 ------- 2 0.0 2.0 77 77
d 1.085 0 1 cbr 512 ------- 2 0.0 2.0 77 77
- 1.085024 0 1 cbr 512 ------- 2 0.0 2.0 55 55
r 1.08816 1 2 cbr 512 ------- 2 0.0 2.0 45 45
+ 1.09 0 1 cbr 512 ------- 2 0.0 2.0 78 78
r 1.090448 0 1 cbr 512 ------- 2 0.0 2.0 48 48
+ 1.090448 1 2 cbr 512 ------- 2 0.0 2.0 48 48
- 1.090448 1 2 cbr 512 ------- 2 0.0 2.0 48 48
- 1.093216 0 1 cbr 512 ------- 2 0.0 2.0 56 56
+ 1.095 0 1 cbr 512 ------- 2 0.0 2.0 79 79
r 1.096352 1 2 cbr 512 ------- 2 0.0 2.0 46 46
r 1.09864 0 1 cbr 512 ------- 2 0.0 2.0 50 50
+ 1.09864 1 2 cbr 512 ------- 2 0.0 2.0 50 50
- 1.09864 1 2 cbr 512 ------- 2 0.0 2.0 50 50
+ 1.1 0 1 cbr 512 ------- 2 0.0 2.0 80 80
d 1.1 0 1 cbr 512 ------- 2 0.0 2.0 80 80
- 1.101408 0 1 cbr 512 ------- 2 0.0 2.0 58 58
r 1.104544 1 2 cbr 512 ------- 2 0.0 2.0 48 48
+ 1.105 0 1 cbr 512 ------- 2 0.0 2.0 81 81
r 1.106832 0 1 cbr 512 ------- 2 0.0 2.0 51 51
+ 1.106832 1 2 cbr 512 ------- 2 0.0 2.0 51 51
- 1.106832 1 2 cbr 512 ------- 2 0.0 2.0 51 51
- 1.1096 0 1 cbr 512 ------- 2 0.0 2.0 59 59
+ 1.11 0 1 cbr 512 ------- 2 0.0 2.0 82 82
r 1.112736 1 2 cbr 512 ------- 2 0.0 2.0 50 50
+ 1.115 0 1 cbr 512 ------- 2 0.0 2.0 83 83
d 1.115 0 1 cbr 512 ------- 2 0.0 2.0 83 83
r 1.115024 0 1 cbr 512 ------- 2 0.0 2.0 53 53
+ 1.115024 1 2 cbr 512 ------- 2 0.0 2.0 53 53
- 1.115024 1 2 cbr 512 ------- 2 0.0 2.0 53 53
- 1.117792 0 1 cbr 512 ------- 2 0.0 2.0 61 61
+ 1.12 0 1 cbr 512 ------- 2 0.0 2.0 84 84
r 1.120928 1 2 cbr 512 ------- 2 0.0 2.0 51 51
r 1.123216 0 1 cbr 512 ------- 2 0.0 2.0 55 55
+ 1.123216 1 2 cbr 512 ------- 2 0.0 2.0 55 55
- 1.123216 1 2 cbr 512 ------- 2 0.0 2.0 55 55
+ 1.125 0 1 cbr 512 ------- 2 0.0 2.0 85 85
d 1.125 0 1 cbr 512 ------- 2 0.0 2.0 85 85
- 1.125984 0 1 cbr 512 ------- 2 0.0 2.0 63 63
r 1.12912 1 2 cbr 512 ------- 2 0.0 2.0 53 53
+ 1.13 0 1 cbr 512 ------- 2 0.0 2.0 86 86
r 1.131408 0 1 cbr 512 ------- 2 0.0 2.0 56 56
+ 1.131408 1 2 cbr 512 ------- 2 0.0 2.0 56 56
- 1.131408 1 2 cbr 512 ------- 2 0.0 2.0 56 56
- 1.134176 0 1 cbr 512 ------- 2 0.0 2.0 64 64
+ 1.135 0 1 cbr 512 ------- 2 0.0 2.0 87 87
r 1.137312 1 2 cbr 512 ------- 2 0.0 2.0 55 55
r 1.1396 0 1 cbr 512 ------- 2 0.0 2.0 58 58
+ 1.1396 1 2 cbr 512 ------- 2 0.0 2.0 58 58
- 1.1396 1 2 cbr 512 ------- 2 0.0 2.0 58 58
+ 1.14 0 1 cbr 512 ------- 2 0.0 2.0 88 88
d 1.14 0 1 cbr 512 ------- 2 0.0 2.0 88 88
- 1.142368 0 1 cbr 512 ------- 2 0.0 2.0 66 66
+ 1.145 0 1 cbr 512 ------- 2 0.0 2.0 89 89
r 1.145504 1 2 cbr 512 ------- 2 0.0 2.0 56 56
r 1.147792 0 1 cbr 512 ------- 2 0.0 2.0 59 59
+ 1.147792 1 2 cbr 512 ------- 2 0.0 2.0 59 59
- 1.147792 1 2 cbr 512 ------- 2 0.0 2.0 59 59
+ 1.15 0 1 cbr 512 ------- 2 0.0 2.0 90 90
d 1.15 0 1 cbr 512 ------- 2 0.0 2.0 90 90
- 1.15056 0 1 cbr 512 ------- 2 0.0 2.0 68 68
r 1.153696 1 2 cbr 512 ------- 2 0.0 2.0 58 58
+ 1.155 0 1 cbr 512 ------- 2 0.0 2.0 91 91
r 1.155984 0 1 cbr 512 ------- 2 0.0 2.0 61 61
+ 1.155984 1 2 cbr 512 ------- 2 0.0 2.0 61 61
- 1.155984 1 2 cbr 512 ------- 2 0.0 2.0 61 61
- 1.158752 0 1 cbr 512 ------- 2 0.0 2.0 69 69
+ 1.16 0 1 cbr 512 ------- 2 0.0 2.0 92 92
r 1.161888 1 2 cbr 512 ------- 2 0.0 2.0 59 59
r 1.164176 0 1 cbr 512 ------- 2 0.0 2.0 63 63
+ 1.164176 1 2 cbr 512 ------- 2 0.0 2.0 63 63
- 1.164176 1 2 cbr 512 ------- 2 0.0 2.0 63 63
+ 1.165 0 1 cbr 512 ------- 2 0.0 2.0 93 93
d 1.165 0 1 cbr 512 ------- 2 0.0 2.0 93 93
- 1.166944 0 1 cbr 512 ------- 2 0.0 2.0 71 71
+ 1.17 0 1 cbr 512 ------- 2 0.0 2.0 94 94
r 1.17008 1 2 cbr 512 ------- 2 0.0 2.0 61 61
r 1.172368 0 1 cbr 512 ------- 2 0.0 2.0 64 64
+ 1.172368 1 2 cbr 512 ------- 2 0.0 2.0 64 64
- 1.172368 1 2 cbr 512 ------- 2 0.0 2.0 64 64
+ 1.175 0 1 cbr 512 ------- 2 0.0 2.0 95 95
d 1.175 0 1 cbr 512 ------- 2 0.0 2.0 95 95
- 1.175136 0 1 cbr 512 ------- 2 0.0 2.0 73 73
r 1.178272 1 2 cbr 512 ------- 2 0.0 2.0 63 63
+ 1.18 0 1 cbr 512 ------- 2 0.0 2.0 96 96
r 1.18056 0 1 cbr 512 ------- 2 0.0 2.0 66 66
+ 1.18056 1 2 cbr 512 ------- 2 0.0 2.0 66 66
- 1.18056 1 2 cbr 512 ------- 2 0.0 2.0 66 66
- 1.183328 0 1 cbr 512 ------- 2 0.0 2.0 74 74
+ 1.185 0 1 cbr 512 ------- 2 0.0 2.0 97 97
r 1.186464 1 2 cbr 512 ------- 2 0.0 2.0 64 64
r 1.188752 0 1 cbr 512 ------- 2 0.0 2.0 68 68
+ 1.188752 1 2 cbr 512 ------- 2 0.0 2.0 68 68
- 1.188752 1 2 cbr 512 ------- 2 0.0 2.0 68 68
+ 1.19 0 1 cbr 512 ------- 2 0.0 2.0 98 98
d 1.19 0 1 cbr 512 ------- 2 0.0 2.0 98 98
- 1.19152 0 1 cbr 512 ------- 2 0.0 2.0 76 76
r 1.194656 1 2 cbr 512 ------- 2 0.0 2.0 66 66
+ 1.195 0 1 cbr 512 ------- 2 0.0 2.0 99 99
r 1.196944 0 1 cbr 512 ------- 2 0.0 2.0 69 69
+ 1.196944 1 2 cbr 512 ------- 2 0.0 2.0 69 69
- 1.196944 1 2 cbr 512 ------- 2 0.0 2.0 69 69
- 1.199712 0 1 cbr 512 ------- 2 0.0 2.0 78 78
+ 1.2 0 1 cbr 512 ------- 2 0.0 2.0 100 100
r 1.202848 1 2 cbr 512 ------- 2 0.0 2.0 68 68
+ 1.205 0 1 cbr 512 ------- 2 0.0 2.0 101 101
d 1.205 0 1 cbr 512 ------- 2 0.0 2.0 101 101
r 1.205136 0 1 cbr 512 ------- 2 0.0 2.0 71 71
+ 1.205136 1 2 cbr 512 ------- 2 0.0 2.0 71 71
- 1.205136 1 2 cbr 512 ------- 2 0.0 2.0 71 71
- 1.207904 0 1 cbr 512 ------- 2 0.0 2.0 79 79
+ 1.21 0 1 cbr 512 ------- 2 0.0 2.0 102 102
r 1.21104 1 2 cbr 512 ------- 2 0.0 2.0 69 69
r 1.213328 0 1 cbr 512 ------- 2 0.0 2.0 73 73
+ 1.213328 1 2 cbr 512 ------- 2 0.0 2.0 73 73
- 1.213328 1 2 cbr 512 ------- 2 0.0 2.0 73 73
+ 1.215 0 1 cbr 512 ------- 2 0.0 2.0 103 103
d 1.215 0 1 cbr 512 ------- 2 0.0 2.0 103 103
- 1.216096 0 1 cbr 512 ------- 2 0.0 2.0 81 81
r 1.219232 1 2 cbr 512 ------- 2 0.0 2.0 71 71
+ 1.22 0 1 cbr 512 ------- 2 0.0 2.0 104 104
r 1.22152 0 1 cbr 512 ------- 2 0.0 2.0 74 74
+ 1.22152 1 2 cbr 512 ------- 2 0.0 2.0 74 74
- 1.22152 1 2 cbr 512 ------- 2 0.0 2.0 74 74
- 1.224288 0 1 cbr 512 ------- 2 0.0 2.0 82 82
+ 1.225 0 1 cbr 512 ------- 2 0.0 2.0 105 105
r 1.227424 1 2 cbr 512 ------- 2 0.0 2.0 73 73
r 1.229712 0 1 cbr 512 ------- 2 0.0 2.0 76 76
+ 1.229712 1 2 cbr 512 ------- 2 0.0 2.0 76 76
- 1.229712 1 2 cbr 512 ------- 2 0.0 2.0 76 76
+ 1.23 0 1 cbr 512 ------- 2 0.0 2.0 106 106
d 1.23 0 1 cbr 512 ------- 2 0.0 2.0 106 106
- 1.23248 0 1 cbr 512 ------- 2 0.0 2.0 84 84
+ 1.235 0 1 cbr 512 ------- 2 0.0 2.0 107 107
r 1.235616 1 2 cbr 512 ------- 2 0.0 2.0 74 74
r 1.237904 0 1 cbr 512 ------- 2 0.0 2.0 78 78
+ 1.237904 1 2 cbr 512 ------- 2 0.0 2.0 78 78
- 1.237904 1 2 cbr 512 ------- 2 0.0 2.0 78 78
+ 1.24 0 1 cbr 512 ------- 2 0.0 2.0 108 108
d 1.24 0 1 cbr 512 ------- 2 0.0 2.0 108 108
- 1.240672 0 1 cbr 512 ------- 2 0.0 2.0 86 86
r 1.243808 1 2 cbr 512 ------- 2 0.0 2.0 76 76
+ 1.245 0 1 cbr 512 ------- 2 0.0 2.0 109 109
r 1.246096 0 1 cbr 512 ------- 2 0.0 2.0 79 79
+ 1.246096 1 2 cbr 512 ------- 2 0.0 2.0 79 79
- 1.246096 1 2 cbr 512 ------- 2 0.0 2.0 79 79
- 1.248864 0 1 cbr 512 ------- 2 0.0 2.0 87 87
+ 1.25 0 1 cbr 512 ------- 2 0.0 2.0 110 110
r 1.252 1 2 cbr 512 ------- 2 0.0 2.0 78 78
r 1.254288 0 1 cbr 512 ------- 2 0.0 2.0 81 81
+ 1.254288 1 2 cbr 512 ------- 2 0.0 2.0 81 81
- 1.254288 1 2 cbr 512 ------- 2 0.0 2.0 81 81
+ 1.255 0 1 cbr 512 ------- 2 0.0 2.0 111 111
d 1.255 0 1 cbr 512 ------- 2 0.0 2.0 111 111
- 1.257056 0 1 cbr 512 ------- 2 0.0 2.0 89 89
+ 1.26 0 1 cbr 512 ------- 2 0.0 2.0 112 112
r 1.260192 1 2 cbr 512 ------- 2 0.0 2.0 79 79
r 1.26248 0 1 cbr 512 ------- 2 0.0 2.0 82 82
+ 1.26248 1 2 cbr 512 ------- 2 0.0 2.0 82 82
- 1.26248 1 2 cbr 512 ------- 2 0.0 2.0 82 82
+ 1.265 0 1 cbr 512 ------- 2 0.0 2.0 113 113
d 1.265 0 1 cbr 512 ------- 2 0.0 2.0 113 113
- 1.265248 0 1 cbr 512 ------- 2 0.0 2.0 91 91
r 1.268384 1 2 cbr 512 ------- 2 0.0 2.0 81 81
+ 1.27 0 1 cbr 512 ------- 2 0.0 2.0 114 114
r 1.270672 0 1 cbr 512 ------- 2 0.0 2.0 84 84
+ 1.270672 1 2 cbr 512 ------- 2 0.0 2.0 84 84
- 1.270672 1 2 cbr 512 ------- 2 0.0 2.0 84 84
- 1.27344 0 1 cbr 512 ------- 2 0.0 2.0 92 92
+ 1.275 0 1 cbr 512 ------- 2 0.0 2.0 115 115
r 1.276576 1 2 cbr 512 ------- 2 0.0 2.0 82 82
r 1.278864 0 1 cbr 512 ------- 2 0.0 2.0 86 86
+ 1.278864 1 2 cbr 512 ------- 2 0.0 2.0 86 86
- 1.278864 1 2 cbr 512 ------- 2 0.0 2.0 86 86
+ 1.28 0 1 cbr 512 ------- 2 0.0 2.0 116 116
d 1.28 0 1 cbr 512 ------- 2 0.0 2.0 116 116
- 1.281632 0 1 cbr 512 ------- 2 0.0 2.0 94 94
r 1.284768 1 2 cbr 512 ------- 2 0.0 2.0 84 84
+ 1.285 0 1 cbr 512 ------- 2 0.0 2.0 117 117
r 1.287056 0 1 cbr 512 ------- 2 0.0 2.0 87 87
+ 1.287056 1 2 cbr 512 ------- 2 0.0 2.0 87 87
- 1.287056 1 2 cbr 512 ------- 2 0.0 2.0 87 87
- 1.289824 0 1 cbr 512 ------- 2 0.0 2.0 96 96
+ 1.29 0 1 cbr 512 ------- 2 0.0 2.0 118 118
r 1.29296 1 2 cbr 512 ------- 2 0.0 2.0 86 86
+ 1.295 0 1 cbr 512 ------- 2 0.0 2.0 119 119
d 1.295 0 1 cbr 512 ------- 2 0.0 2.0 119 119
r 1.295248 0 1 cbr 512 ------- 2 0.0 2.0 89 89
+ 1.295248 1 2 cbr 512 ------- 2 0.0 2.0 89 89
- 1.295248 1 2 cbr 512 ------- 2 0.0 2.0 89 89
- 1.298016 0 1 cbr 512 ------- 2 0.0 2.0 97 97
+ 1.3 0 1 cbr 512 ------- 2 0.0 2.0 120 120
r 1.301152 1 2 cbr 512 ------- 2 0.0 2.0 87 87
r 1.30344 0 1 cbr 512 ------- 2 0.0 2.0 91 91
+ 1.30344 1 2 cbr 512 ------- 2 0.0 2.0 91 91
- 1.30344 1 2 cbr 512 ------- 2 0.0 2.0 91 91
+ 1.305 0 1 cbr 512 ------- 2 0.0 2.0 121 121
d 1.305 0 1 cbr 512 ------- 2 0.0 2.0 121 121
- 1.306208 0 1 cbr 512 ------- 2 0.0 2.0 99 99
r 1.309344 1 2 cbr 512 ------- 2 0.0 2.0 89 89
+ 1.31 0 1 cbr 512 ------- 2 0.0 2.0 122 122
r 1.311632 0 1 cbr 512 ------- 2 0.0 2.0 92 92
+ 1.311632 1 2 cbr 512 ------- 2 0.0 2.0 92 92
- 1.311632 1 2 cbr 512 ------- 2 0.0 2.0 92 92
- 1.3144 0 1 cbr 512 ------- 2 0.0 2.0 100 100
+ 1.315 0 1 cbr 512 ------- 2 0.0 2.0 123 123
r 1.317536 1 2 cbr 512 ------- 2 0.0 2.0 91 91
r 1.319824 0 1 cbr 512 ------- 2 0.0 2.0 94 94
+ 1.319824 1 2 cbr 512 ------- 2 0.0 2.0 94 94
- 1.319824 1 2 cbr 512 ------- 2 0.0 2.0 94 94
+ 1.32 0 1 cbr 512 ------- 2 0.0 2.0 124 124
d 1.32 0 1 cbr 512 ------- 2 0.0 2.0 124 124
- 1.322592 0 1 cbr 512 ------- 2 0.0 2.0 102 102
+ 1.325 0 1 cbr 512 ------- 2 0.0 2.0 125 125
r 1.325728 1 2 cbr 512 ------- 2 0.0 2.0 92 92
r 1.328016 0 1 cbr 512 ------- 2 0.0 2.0 96 96
+ 1.328016 1 2 cbr 512 ------- 2 0.0 2.0 96 96
- 1.328016 1 2 cbr 512 ------- 2 0.0 2.0 96 96
+ 1.33 0 1 cbr 512 ------- 2 0.0 2.0 126 126
d 1.33 0 1 cbr 512 ------- 2 0.0 2.0 126 126
- 1.330784 0 1 cbr 512 ------- 2 0.0 2.0 104 104
r 1.33392 1 2 cbr 512 ------- 2 0.0 2.0 94 94
+ 1.335 0 1 cbr 512 ------- 2 0.0 2.0 127 127
r 1.336208 0 1 cbr 512 ------- 2 0.0 2.0 97 97
+ 1.336208 1 2 cbr 512 ------- 2 0.0 2.0 97 97
- 1.336208 1 2 cbr 512 ------- 2 0.0 2.0 97 97
- 1.338976 0 1 cbr 512 ------- 2 0.0 2.0 105 105
+ 1.34 0 1 cbr 512 ------- 2 0.0 2.0 128 128
r 1.342112 1 2 cbr 512 ------- 2 0.0 2.0 96 96
r 1.3444 0 1 cbr 512 ------- 2 0.0 2.0 99 99
+ 1.3444 1 2 cbr 512 ------- 2 0.0 2.0 99 99
- 1.3444 1 2 cbr 512 ------- 2 0.0 2.0 99 99
+ 1.345 0 1 cbr 512 ------- 2 0.0 2.0 129 129
d 1.345 0 1 cbr 512 ------- 2 0.0 2.0 129 129
- 1.347168 0 1 cbr 512 ------- 2 0.0 2.0 107 107
+ 1.35 0 1 cbr 512 ------- 2 0.0 2.0 130 130
r 1.350304 1 2 cbr 512 ------- 2 0.0 2.0 97 97
r 1.352592 0 1 cbr 512 ------- 2 0.0 2.0 100 100
+ 1.352592 1 2 cbr 512 ------- 2 0.0 2.0 100 100
- 1.352592 1 2 cbr 512 ------- 2 0.0 2.0 100 100
+ 1.355 0 1 cbr 512 ------- 2 0.0 2.0 131 131
d 1.355 0 1 cbr 512 ------- 2 0.0 2.0 131 131
- 1.35536 0 1 cbr 512 ------- 2 0.0 2.0 109 109
r 1.358496 1 2 cbr 512 ------- 2 0.0 2.0 99 99
+ 1.36 0 1 cbr 512 ------- 2 0.0 2.0 132 132
r 1.360784 0 1 cbr 512 ------- 2 0.0 2.0 102 102
+ 1.360784 1 2 cbr 512 ------- 2 0.0 2.0 102 102
- 1.360784 1 2 cbr 512 ------- 2 0.0 2.0 102 102
- 1.363552 0 1 cbr 512 ------- 2 0.0 2.0 110 110
+ 1.365 0 1 cbr 512 ------- 2 0.0 2.0 133 133
r 1.366688 1 2 cbr 512 ------- 2 0.0 2.0 100 100
r 1.368976 0 1 cbr 512 ------- 2 0.0 2.0 104 104
+ 1.368976 1 2 cbr 512 ------- 2 0.0 2.0 104 104
- 1.368976 1 2 cbr 512 ------- 2 0.0 2.0 104 104
+ 1.37 0 1 cbr 512 ------- 2 0.0 2.0 134 134
d 1.37 0 1 cbr 512 ------- 2 0.0 2.0 134 134
- 1.371744 0 1 cbr 512 ------- 2 0.0 2.0 112 112
r 1.37488 1 2 cbr 512 ------- 2 0.0 2.0 102 102
+ 1.375 0 1 cbr 512 ------- 2 0.0 2.0 135 135
r 1.377168 0 1 cbr 512 ------- 2 0.0 2.0 105 105
+ 1.377168 1 2 cbr 512 ------- 2 0.0 2.0 105 105
- 1.377168 1 2 cbr 512 ------- 2 0.0 2.0 105 105
- 1.379936 0 1 cbr 512 ------- 2 0.0 2.0 114 114
+ 1.38 0 1 cbr 512 ------- 2 0.0 2.0 136 136
r 1.383072 1 2 cbr 512 ------- 2 0.0 2.0 104 104
+ 1.385 0 1 cbr 512 ------- 2 0.0 2.0 137 137
d 1.385 0 1 cbr 512 ------- 2 0.0 2.0 137 137
r 1.38536 0 1 cbr 512 ------- 2 0.0 2.0 107 107
+ 1.38536 1 2 cbr 512 ------- 2 0.0 2.0 107 107
- 1.38536 1 2 cbr 512 ------- 2 0.0 2.0 107 107
- 1.388128 0 1 cbr 512 ------- 2 0.0 2.0 115 115
+ 1.39 0 1 cbr 512 ------- 2 0.0 2.0 138 138
r 1.391264 1 2 cbr 512 ------- 2 0.0 2.0 105 105
r 1.393552 0 1 cbr 512 ------- 2 0.0 2.0 109 109
+ 1.393552 1 2 cbr 512 ------- 2 0.0 2.0 109 109
- 1.393552 1 2 cbr 512 ------- 2 0.0 2.0 109 109
+ 1.395 0 1 cbr 512 ------- 2 0.0 2.0 139 139
d 1.395 0 1 cbr 512 ------- 2 0.0 2.0 139 139
- 1.39632 0 1 cbr 512 ------- 2 0.0 2.0 117 117
r 1.399456 1 2 cbr 512 ------- 2 0.0 2.0 107 107
+ 1.4 0 1 cbr 512 ------- 2 0.0 2.0 140 140
r 1.401744 0 1 cbr 512 ------- 2 0.0 2.0 110 110
+ 1.401744 1 2 cbr 512 ------- 2 0.0 2.0 110 110
- 1.401744 1 2 cbr 512 ------- 2 0.0 2.0 110 110
- 1.404512 0 1 cbr 512 ------- 2 0.0 2.0 118 118
+ 1.405 0 1 cbr 512 ------- 2 0.0 2.0 141 141
r 1.407648 1 2 cbr 512 ------- 2 0.0 2.0 109 109
r 1.409936 0 1 cbr 512 ------- 2 0.0 2.0 112 112
+ 1.409936 1 2 cbr 512 ------- 2 0.0 2.0 112 112
- 1.409936 1 2 cbr 512 ------- 2 0.0 2.0 112 112
+ 1.41 0 1 cbr 512 ------- 2 0.0 2.0 142 142
d 1.41 0 1 cbr 512 ------- 2 0.0 2.0 142 142
- 1.412704 0 1 cbr 512 ------- 2 0.0 2.0 120 120
+ 1.415 0 1 cbr 512 ------- 2 0.0 2.0 143 143
r 1.41584 1 2 cbr 512 ------- 2 0.0 2.0 110 110
r 1.418128 0 1 cbr 512 ------- 2 0.0 2.0 114 114
+ 1.418128 1 2 cbr 512 ------- 2 0.0 2.0 114 114
- 1.418128 1 2 cbr 512 ------- 2 0.0 2.0 114 114
+ 1.42 0 1 cbr 512 ------- 2 0.0 2.0 144 144
d 1.42 0 1 cbr 512 ------- 2 0.0 2.0 144 144
- 1.420896 0 1 cbr 512 ------- 2 0.0 2.0 122 122
r 1.424032 1 2 cbr 512 ------- 2 0.0 2.0 112 112
+ 1.425 0 1 cbr 512 ------- 2 0.0 2.0 145 145
r 1.42632 0 1 cbr 512 ------- 2 0.0 2.0 115 115
+ 1.42632 1 2 cbr 512 ------- 2 0.0 2.0 115 115
- 1.42632 1 2 cbr 512 ------- 2 0.0 2.0 115 115
- 1.429088 0 1 cbr 512 ------- 2 0.0 2.0 123 123
+ 1.43 0 1 cbr 512 ------- 2 0.0 2.0 146 146
r 1.432224 1 2 cbr 512 ------- 2 0.0 2.0 114 114
r 1.434512 0 1 cbr 512 ------- 2 0.0 2.0 117 117
+ 1.434512 1 2 cbr 512 ------- 2 0.0 2.0 117 117
- 1.434512 1 2 cbr 512 ------- 2 0.0 2.0 117 117
+ 1.435 0 1 cbr 512 ------- 2 0.0 2.0 147 147
d 1.435 0 1 cbr 512 ------- 2 0.0 2.0 147 147
- 1.43728 0 1 cbr 512 ------- 2 0.0 2.0 125 125
+ 1.44 0 1 cbr 512 ------- 2 0.0 2.0 148 148
r 1.440416 1 2 cbr 512 ------- 2 0.0 2.0 115 115
r 1.442704 0 1 cbr 512 ------- 2 0.0 2.0 118 118
+ 1.442704 1 2 cbr 512 ------- 2 0.0 2.0 118 118
- 1.442704 1 2 cbr 512 ------- 2 0.0 2.0 118 118
+ 1.445 0 1 cbr 512 ------- 2 0.0 2.0 149 149
d 1.445 0 1 cbr 512 ------- 2 0.0 2.0 149 149
- 1.445472 0 1 cbr 512 ------- 2 0.0 2.0 127 127
r 1.448608 1 2 cbr 512 ------- 2 0.0 2.0 117 117
+ 1.45 0 1 cbr 512 ------- 2 0.0 2.0 150 150
r 1.450896 0 1 cbr 512 ------- 2 0.0 2.0 120 120
+ 1.450896 1 2 cbr 512 ------- 2 0.0 2.0 120 120
- 1.450896 1 2 cbr 512 ------- 2 0.0 2.0 120 120
- 1.453664 0 1 cbr 512 ------- 2 0.0 2.0 128 128
+ 1.455 0 1 cbr 512 ------- 2 0.0 2.0 151 151
r 1.4568 1 2 cbr 512 ------- 2 0.0 2.0 118 118
r 1.459088 0 1 cbr 512 ------- 2 0.0 2.0 122 122
+ 1.459088 1 2 cbr 512 ------- 2 0.0 2.0 122 122
- 1.459088 1 2 cbr 512 ------- 2 0.0 2.0 122 122
+ 1.46 0 1 cbr 512 ------- 2 0.0 2.0 152 152
d 1.46 0 1 cbr 512 ------- 2 0.0 2.0 152 152
- 1.461856 0 1 cbr 512 ------- 2 0.0 2.0 130 130
r 1.464992 1 2 cbr 512 ------- 2 0.0 2.0 120 120
+ 1.465 0 1 cbr 512 ------- 2 0.0 2.0 153 153
r 1.46728 0 1 cbr 512 ------- 2 0.0 2.0 123 123
+ 1.46728 1 2 cbr 512 ------- 2 0.0 2.0 123 123